 Entering Gaussian System, Link 0=/usr/local_rwth/sw/gaussian/LINUX_emt64/g09.a02/g09
 Input=h2o_opt_hf.com
 Output=h2o_opt_hf.log
 Initial command:
 /usr/local_rwth/sw/gaussian/LINUX_emt64/g09.a02/l1.exe /ntmp/Gau-14427.inp -scrdir=/ntmp/
 Entering Link 1 = /usr/local_rwth/sw/gaussian/LINUX_emt64/g09.a02/l1.exe PID=     14430.
  
 Copyright (c) 1988,1990,1992,1993,1995,1998,2003,2009, Gaussian, Inc.
                  All Rights Reserved.
  
 This is part of the Gaussian(R) 09 program.  It is based on
 the Gaussian(R) 03 system (copyright 2003, Gaussian, Inc.),
 the Gaussian(R) 98 system (copyright 1998, Gaussian, Inc.),
 the Gaussian(R) 94 system (copyright 1995, Gaussian, Inc.),
 the Gaussian 92(TM) system (copyright 1992, Gaussian, Inc.),
 the Gaussian 90(TM) system (copyright 1990, Gaussian, Inc.),
 the Gaussian 88(TM) system (copyright 1988, Gaussian, Inc.),
 the Gaussian 86(TM) system (copyright 1986, Carnegie Mellon
 University), and the Gaussian 82(TM) system (copyright 1983,
 Carnegie Mellon University). Gaussian is a federally registered
 trademark of Gaussian, Inc.
  
 This software contains proprietary and confidential information,
 including trade secrets, belonging to Gaussian, Inc.
  
 This software is provided under written license and may be
 used, copied, transmitted, or stored only in accord with that
 written license.
  
 The following legend is applicable only to US Government
 contracts under FAR:
  
                    RESTRICTED RIGHTS LEGEND
  
 Use, reproduction and disclosure by the US Government is
 subject to restrictions as set forth in subparagraphs (a)
 and (c) of the Commercial Computer Software - Restricted
 Rights clause in FAR 52.227-19.
  
 Gaussian, Inc.
 340 Quinnipiac St., Bldg. 40, Wallingford CT 06492
  
  
 ---------------------------------------------------------------
 Warning -- This program may not be used in any manner that
 competes with the business of Gaussian, Inc. or will provide
 assistance to any competitor of Gaussian, Inc.  The licensee
 of this program is prohibited from giving any competitor of
 Gaussian, Inc. access to this program.  By using this program,
 the user acknowledges that Gaussian, Inc. is engaged in the
 business of creating and licensing software in the field of
 computational chemistry and represents and warrants to the
 licensee that it is not a competitor of Gaussian, Inc. and that
 it will not use this program in any manner prohibited above.
 ---------------------------------------------------------------
  

 Cite this work as:
 Gaussian 09, Revision A.02,
 M. J. Frisch, G. W. Trucks, H. B. Schlegel, G. E. Scuseria, 
 M. A. Robb, J. R. Cheeseman, G. Scalmani, V. Barone, B. Mennucci, 
 G. A. Petersson, H. Nakatsuji, M. Caricato, X. Li, H. P. Hratchian, 
 A. F. Izmaylov, J. Bloino, G. Zheng, J. L. Sonnenberg, M. Hada, 
 M. Ehara, K. Toyota, R. Fukuda, J. Hasegawa, M. Ishida, T. Nakajima, 
 Y. Honda, O. Kitao, H. Nakai, T. Vreven, J. A. Montgomery, Jr., 
 J. E. Peralta, F. Ogliaro, M. Bearpark, J. J. Heyd, E. Brothers, 
 K. N. Kudin, V. N. Staroverov, R. Kobayashi, J. Normand, 
 K. Raghavachari, A. Rendell, J. C. Burant, S. S. Iyengar, J. Tomasi, 
 M. Cossi, N. Rega, J. M. Millam, M. Klene, J. E. Knox, J. B. Cross, 
 V. Bakken, C. Adamo, J. Jaramillo, R. Gomperts, R. E. Stratmann, 
 O. Yazyev, A. J. Austin, R. Cammi, C. Pomelli, J. W. Ochterski, 
 R. L. Martin, K. Morokuma, V. G. Zakrzewski, G. A. Voth, 
 P. Salvador, J. J. Dannenberg, S. Dapprich, A. D. Daniels, 
 O. Farkas, J. B. Foresman, J. V. Ortiz, J. Cioslowski, 
 and D. J. Fox, Gaussian, Inc., Wallingford CT, 2009.
 
 ******************************************
 Gaussian 09:  EM64L-G09RevA.02 11-Jun-2009
                27-Sep-2016 
 ******************************************
 %mem=8GB
 %nprocshared=8
 Will use up to    8 processors via shared memory.
 %chk=h2o_opt_hf.chk
 Default route: MaxDisk=200000000
 ----------------------------
 # opt rhf/aug-cc-pvqz nosymm
 ----------------------------
 1/18=20,19=15,38=1/1,3;
 2/9=110,12=2,15=1,17=6,18=5,40=1/2;
 3/5=16,6=2,7=10,11=1,16=1,25=1,30=1,71=1,116=1/1,2,3;
 4//1;
 5/5=2,38=5/2;
 6/7=2,8=2,9=2,10=2,28=1/1;
 7/30=1/1,2,3,16;
 1/18=20,19=15/3(2);
 2/9=110,15=1/2;
 99//99;
 2/9=110,15=1/2;
 3/5=16,6=2,7=10,11=1,16=1,25=1,30=1,71=1,116=1/1,2,3;
 4/5=5,16=3/1;
 5/5=2,38=5/2;
 7/30=1/1,2,3,16;
 1/18=20,19=15/3(-5);
 2/9=110,15=1/2;
 6/7=2,8=2,9=2,10=2,19=2,28=1/1;
 99/9=1/99;
 -------------
 h20_dimer_opt
 -------------
 Symbolic Z-matrix:
 Charge =  0 Multiplicity = 1
 O                    -0.5274    0.19604  -0.14472 
 H                     0.1679   -0.37558   0.20695 
 H                    -0.34281   0.37559  -1.07616 
 O                    -3.06704  -0.9312    0.19196 
 H                    -2.183    -0.54067   0.07778 
 H                    -3.58421  -0.33061   0.74394 
 

 GradGradGradGradGradGradGradGradGradGradGradGradGradGradGradGradGradGrad
 Berny optimization.
 Initialization pass.
                           ----------------------------
                           !    Initial Parameters    !
                           ! (Angstroms and Degrees)  !
 --------------------------                            --------------------------
 ! Name  Definition              Value          Derivative Info.                !
 --------------------------------------------------------------------------------
 ! R1    R(1,2)                  0.9664         estimate D2E/DX2                !
 ! R2    R(1,3)                  0.9664         estimate D2E/DX2                !
 ! R3    R(1,5)                  1.8257         estimate D2E/DX2                !
 ! R4    R(4,5)                  0.9732         estimate D2E/DX2                !
 ! R5    R(4,6)                  0.9658         estimate D2E/DX2                !
 ! A1    A(2,1,3)              108.8579         estimate D2E/DX2                !
 ! A2    A(2,1,5)              111.6799         estimate D2E/DX2                !
 ! A3    A(3,1,5)              111.4473         estimate D2E/DX2                !
 ! A4    A(5,4,6)              107.6938         estimate D2E/DX2                !
 ! A5    L(1,5,4,6,-1)         180.0212         estimate D2E/DX2                !
 ! A6    L(1,5,4,6,-2)         179.4848         estimate D2E/DX2                !
 ! D1    D(2,1,4,6)            119.252          estimate D2E/DX2                !
 ! D2    D(3,1,4,6)           -118.7567         estimate D2E/DX2                !
 --------------------------------------------------------------------------------
 Trust Radius=3.00D-01 FncErr=1.00D-07 GrdErr=1.00D-07
 Number of steps in this run=  23 maximum allowed number of steps= 100.
 GradGradGradGradGradGradGradGradGradGradGradGradGradGradGradGradGradGrad

                          Input orientation:                          
 ---------------------------------------------------------------------
 Center     Atomic      Atomic             Coordinates (Angstroms)
 Number     Number       Type             X           Y           Z
 ---------------------------------------------------------------------
      1          8           0       -0.527400    0.196044   -0.144723
      2          1           0        0.167903   -0.375576    0.206952
      3          1           0       -0.342814    0.375587   -1.076156
      4          8           0       -3.067037   -0.931200    0.191962
      5          1           0       -2.183003   -0.540668    0.077779
      6          1           0       -3.584207   -0.330612    0.743941
 ---------------------------------------------------------------------
                    Distance matrix (angstroms):
                    1          2          3          4          5
     1  O    0.000000
     2  H    0.966370   0.000000
     3  H    0.966372   1.572083   0.000000
     4  O    2.798891   3.282344   3.276768   0.000000
     5  H    1.825725   2.360233   2.357411   0.973175   0.000000
     6  H    3.226633   3.790608   3.783926   0.965842   1.565653
                    6
     6  H    0.000000
 Symmetry turned off by external request.
 Stoichiometry    H4O2
 Framework group  C1[X(H4O2)]
 Deg. of freedom    12
 Full point group                 C1      NOp   1
 Rotational constants (GHZ):    215.5755290      6.9126275      6.8988035
 Standard basis: Aug-CC-pVQZ (5D, 7F)
 Integral buffers will be    131072 words long.
 Raffenetti 1 integral format.
 Two-electron integral symmetry is turned off.
   344 basis functions,   476 primitive gaussians,   430 cartesian basis functions
    10 alpha electrons       10 beta electrons
       nuclear repulsion energy        37.2102078729 Hartrees.
 NAtoms=    6 NActive=    6 NUniq=    6 SFac= 7.50D-01 NAtFMM=   80 NAOKFM=F Big=F
 One-electron integrals computed using PRISM.
 NBasis=   344 RedAO= T  NBF=   344
 NBsUse=   344 1.00D-06 NBFU=   344
 Harris functional with IExCor=  205 diagonalized for initial guess.
 ExpMin= 2.36D-02 ExpMax= 6.14D+04 ExpMxC= 5.91D+02 IAcc=3 IRadAn=         0 AccDes= 0.00D+00
 HarFok:  IExCor=  205 AccDes= 0.00D+00 IRadAn=         0 IDoV= 1
 ScaDFX=  1.000000  1.000000  1.000000  1.000000
 FoFCou: FMM=F IPFlag=           0 FMFlag=      100000 FMFlg1=           0
         NFxFlg=           0 DoJE=T BraDBF=F KetDBF=T FulRan=T
         Omega=  0.000000  0.000000  1.000000  0.000000  0.000000 ICntrl=     500 IOpCl=  0
         NMat0=    1 NMatS0=    1 NMatT0=    0 NMatD0=    1 NMtDS0=    0 NMtDT0=    0
         I1Cent=           4 NGrid=           0.
 Symmetry not used in FoFCou.
 Requested convergence on RMS density matrix=1.00D-08 within 128 cycles.
 Requested convergence on MAX density matrix=1.00D-06.
 Requested convergence on             energy=1.00D-06.
 No special actions if energy rises.
 Initial convergence to 1.0D-05 achieved.  Increase integral accuracy.
 SCF Done:  E(RHF) =  -152.134728698     A.U. after   10 cycles
             Convg  =    0.8579D-08             -V/T =  2.0013

 **********************************************************************

            Population analysis using the SCF density.

 **********************************************************************

 Alpha  occ. eigenvalues --  -20.59312 -20.52669  -1.37843  -1.31005  -0.75090
 Alpha  occ. eigenvalues --   -0.69524  -0.61012  -0.55247  -0.52559  -0.47435
 Alpha virt. eigenvalues --    0.01964   0.04029   0.04347   0.06744   0.10334
 Alpha virt. eigenvalues --    0.12137   0.13796   0.14137   0.15037   0.16149
 Alpha virt. eigenvalues --    0.17688   0.17982   0.19738   0.20912   0.22265
 Alpha virt. eigenvalues --    0.23227   0.24961   0.25078   0.29266   0.30666
 Alpha virt. eigenvalues --    0.31317   0.34479   0.34923   0.35595   0.37270
 Alpha virt. eigenvalues --    0.37633   0.42307   0.46700   0.47288   0.48870
 Alpha virt. eigenvalues --    0.51660   0.52860   0.54763   0.56739   0.56838
 Alpha virt. eigenvalues --    0.59673   0.60002   0.60458   0.61915   0.65080
 Alpha virt. eigenvalues --    0.65450   0.67768   0.67986   0.70057   0.70729
 Alpha virt. eigenvalues --    0.73217   0.73315   0.74136   0.76477   0.77236
 Alpha virt. eigenvalues --    0.77667   0.78287   0.79403   0.80662   0.81980
 Alpha virt. eigenvalues --    0.83127   0.85658   0.87203   0.90217   0.92735
 Alpha virt. eigenvalues --    0.96915   0.97121   0.97996   1.00191   1.08254
 Alpha virt. eigenvalues --    1.12765   1.14685   1.14919   1.16814   1.21667
 Alpha virt. eigenvalues --    1.23333   1.26040   1.27506   1.33111   1.34284
 Alpha virt. eigenvalues --    1.40458   1.42360   1.44152   1.48379   1.52619
 Alpha virt. eigenvalues --    1.53836   1.55821   1.56495   1.57526   1.58762
 Alpha virt. eigenvalues --    1.60872   1.62006   1.64700   1.66866   1.67724
 Alpha virt. eigenvalues --    1.68358   1.68838   1.71642   1.73122   1.74119
 Alpha virt. eigenvalues --    1.74379   1.76893   1.77056   1.78950   1.79443
 Alpha virt. eigenvalues --    1.80368   1.82082   1.84390   1.84806   1.86603
 Alpha virt. eigenvalues --    1.88871   1.88973   1.91141   1.91983   1.93088
 Alpha virt. eigenvalues --    1.95579   1.96717   1.98789   1.99464   2.02633
 Alpha virt. eigenvalues --    2.05748   2.07233   2.12481   2.13697   2.16442
 Alpha virt. eigenvalues --    2.18697   2.20360   2.24395   2.25171   2.29326
 Alpha virt. eigenvalues --    2.33570   2.35731   2.36244   2.38764   2.39534
 Alpha virt. eigenvalues --    2.42281   2.48199   2.56952   2.64416   2.65547
 Alpha virt. eigenvalues --    2.74854   2.82083   2.82697   2.91069   2.96633
 Alpha virt. eigenvalues --    2.99883   3.02914   3.04653   3.06961   3.08794
 Alpha virt. eigenvalues --    3.12227   3.13072   3.16352   3.19577   3.20215
 Alpha virt. eigenvalues --    3.26885   3.28916   3.33898   3.42558   3.46595
 Alpha virt. eigenvalues --    3.47984   3.52580   3.58659   3.60007   3.63330
 Alpha virt. eigenvalues --    3.66931   3.68883   3.69124   3.75661   3.78415
 Alpha virt. eigenvalues --    3.80646   3.85886   3.88705   3.89083   3.93232
 Alpha virt. eigenvalues --    4.05704   4.07091   4.15431   4.19359   4.21656
 Alpha virt. eigenvalues --    4.27575   4.28439   4.30895   4.32549   4.36219
 Alpha virt. eigenvalues --    4.39548   4.39835   4.47418   4.49157   4.50469
 Alpha virt. eigenvalues --    4.57640   4.67050   4.67922   4.70591   4.74576
 Alpha virt. eigenvalues --    4.76499   4.82984   4.86057   4.86580   4.89080
 Alpha virt. eigenvalues --    4.99167   4.99991   5.02202   5.06371   5.12777
 Alpha virt. eigenvalues --    5.16560   5.23216   5.27248   5.39971   5.44775
 Alpha virt. eigenvalues --    5.49561   5.51441   5.52380   5.64493   5.71843
 Alpha virt. eigenvalues --    5.72017   5.86662   5.92152   5.95998   6.05799
 Alpha virt. eigenvalues --    6.07305   6.12198   6.22104   6.35231   6.48699
 Alpha virt. eigenvalues --    6.82956   6.87793   6.90832   6.92016   6.92357
 Alpha virt. eigenvalues --    6.95215   7.01782   7.14151   7.65918   7.74418
 Alpha virt. eigenvalues --    7.79081   7.82456   7.86031   7.86277   7.90505
 Alpha virt. eigenvalues --    7.90779   7.94503   7.95055   8.00157   8.01197
 Alpha virt. eigenvalues --    8.04780   8.04957   8.08378   8.13950   8.23060
 Alpha virt. eigenvalues --    8.27057   8.47633   8.49841   8.60201   8.68859
 Alpha virt. eigenvalues --    8.71353   8.76413   8.76468   8.79048   8.82251
 Alpha virt. eigenvalues --    8.85690   8.96018   8.99741   9.03933   9.08561
 Alpha virt. eigenvalues --    9.16567   9.16692   9.17319   9.22090   9.27484
 Alpha virt. eigenvalues --    9.40138   9.46990   9.70088   9.84923   9.88279
 Alpha virt. eigenvalues --    9.95599   9.98173  10.01457  10.07344  10.17921
 Alpha virt. eigenvalues --   10.18930  10.45127  10.45825  10.47853  10.58396
 Alpha virt. eigenvalues --   10.91556  10.94931  11.05261  11.08878  11.19169
 Alpha virt. eigenvalues --   11.22361  11.25094  11.32255  11.41356  11.44407
 Alpha virt. eigenvalues --   11.49045  11.51507  11.60699  11.72751  11.77377
 Alpha virt. eigenvalues --   11.81031  11.82663  11.88980  11.99145  12.09643
 Alpha virt. eigenvalues --   12.14489  12.19511  12.24681  12.30935  12.32817
 Alpha virt. eigenvalues --   12.49563  12.53555  12.66078  12.73371  12.84106
 Alpha virt. eigenvalues --   12.84570  12.90694  12.91213  12.99480  13.20700
 Alpha virt. eigenvalues --   13.32715  13.88461  13.96167  14.20131  14.22877
 Alpha virt. eigenvalues --   14.47808  14.49256  14.72977  14.78847  14.84697
 Alpha virt. eigenvalues --   14.89884  15.22766  15.27869  16.94261  17.05568
 Alpha virt. eigenvalues --   17.25682  17.36133  45.65044  45.98065
          Condensed to atoms (all electrons):
              1          2          3          4          5          6
     1  O    8.039631   0.261295   0.261159  -0.010334  -0.002369   0.000519
     2  H    0.261295   0.430863   0.001116   0.000825  -0.000241  -0.000062
     3  H    0.261159   0.001116   0.430549   0.000804  -0.000164  -0.000077
     4  O   -0.010334   0.000825   0.000804   8.083876   0.260267   0.273601
     5  H   -0.002369  -0.000241  -0.000164   0.260267   0.467021   0.025560
     6  H    0.000519  -0.000062  -0.000077   0.273601   0.025560   0.404259
 Mulliken atomic charges:
              1
     1  O   -0.549903
     2  H    0.306204
     3  H    0.306612
     4  O   -0.609039
     5  H    0.249926
     6  H    0.296200
 Sum of Mulliken atomic charges =   0.00000
 Mulliken charges with hydrogens summed into heavy atoms:
              1
     1  O    0.062913
     4  O   -0.062913
 Sum of Mulliken charges with hydrogens summed into heavy atoms =   0.00000
 Electronic spatial extent (au):  <R**2>=            410.4429
 Charge=              0.0000 electrons
 Dipole moment (field-independent basis, Debye):
    X=              2.7622    Y=              1.2355    Z=             -0.3667  Tot=              3.0480
 Quadrupole moment (field-independent basis, Debye-Ang):
   XX=            -18.5912   YY=            -16.4152   ZZ=            -10.8544
   XY=             -6.7966   XZ=             -2.4850   YZ=             -0.7542
 Traceless Quadrupole moment (field-independent basis, Debye-Ang):
   XX=             -3.3043   YY=             -1.1283   ZZ=              4.4325
   XY=             -6.7966   XZ=             -2.4850   YZ=             -0.7542
 Octapole moment (field-independent basis, Debye-Ang**2):
  XXX=             80.8825  YYY=             17.8404  ZZZ=             -3.1995  XYY=             33.4621
  XXY=             25.6487  XXZ=             12.5854  XZZ=             21.5901  YZZ=              6.2360
  YYZ=             -1.5142  XYZ=             -0.5631
 Hexadecapole moment (field-independent basis, Debye-Ang**3):
 XXXX=           -401.8811 YYYY=            -50.7854 ZZZZ=            -14.4502 XXXY=           -116.8255
 XXXZ=            -39.8750 YYYX=            -64.1169 YYYZ=              5.8287 ZZZX=             11.6408
 ZZZY=              3.6371 XXYY=           -104.4981 XXZZ=            -62.7009 YYZZ=            -10.9711
 XXYZ=              2.7134 YYXZ=              6.9814 ZZXY=            -18.9776
 N-N= 3.721020787290D+01 E-N=-4.357944288010D+02  KE= 1.519384871394D+02
 Calling FoFJK, ICntrl=      2127 FMM=F ISym2X=0 I1Cent= 0 IOpClX= 0 NMat=1 NMatS=1 NMatT=0.
 -------------------------------------------------------------------
 Center     Atomic                   Forces (Hartrees/Bohr)
 Number     Number              X              Y              Z
 -------------------------------------------------------------------
      1        8           0.024408835   -0.007913475   -0.014292329
      2        1          -0.017876775    0.017155518   -0.014607062
      3        1          -0.001038312   -0.007625106    0.027706086
      4        8           0.005557971    0.023556147    0.011663770
      5        1          -0.029515887   -0.008462988    0.006459057
      6        1           0.018464169   -0.016710097   -0.016929522
 -------------------------------------------------------------------
 Cartesian Forces:  Max     0.029515887 RMS     0.016881790

 GradGradGradGradGradGradGradGradGradGradGradGradGradGradGradGradGradGrad
 Berny optimization.
 Internal  Forces:  Max     0.029952943 RMS     0.015833127
 Search for a local minimum.
 Step number   1 out of a maximum of   23
 All quantities printed in internal units (Hartrees-Bohrs-Radians)
 Mixed Optimization -- RFO/linear search
 Second derivative matrix not updated -- first step.
 The second derivative matrix:
                          R1        R2        R3        R4        R5
           R1           0.54126
           R2           0.00000   0.54125
           R3           0.00000   0.00000   0.05831
           R4           0.00000   0.00000   0.00000   0.52733
           R5           0.00000   0.00000   0.00000   0.00000   0.54236
           A1           0.00000   0.00000   0.00000   0.00000   0.00000
           A2           0.00000   0.00000   0.00000   0.00000   0.00000
           A3           0.00000   0.00000   0.00000   0.00000   0.00000
           A4           0.00000   0.00000   0.00000   0.00000   0.00000
           A5           0.00000   0.00000   0.00000   0.00000   0.00000
           A6           0.00000   0.00000   0.00000   0.00000   0.00000
           D1           0.00000   0.00000   0.00000   0.00000   0.00000
           D2           0.00000   0.00000   0.00000   0.00000   0.00000
                          A1        A2        A3        A4        A5
           A1           0.16000
           A2           0.00000   0.16000
           A3           0.00000   0.00000   0.16000
           A4           0.00000   0.00000   0.00000   0.16000
           A5           0.00000   0.00000   0.00000   0.00000   0.01383
           A6           0.00000   0.00000   0.00000   0.00000   0.00000
           D1           0.00000   0.00000   0.00000   0.00000   0.00000
           D2           0.00000   0.00000   0.00000   0.00000   0.00000
                          A6        D1        D2
           A6           0.01383
           D1           0.00000   0.00230
           D2           0.00000   0.00000   0.00230
     Eigenvalues ---    0.00230   0.01347   0.01383   0.05831   0.07101
     Eigenvalues ---    0.16000   0.16000   0.16000   0.52733   0.54125
     Eigenvalues ---    0.54126   0.542361000.00000
 RFO step:  Lambda=-7.05283278D-03 EMin= 2.30000000D-03
 Linear search not attempted -- first point.
 Iteration  1 RMS(Cart)=  0.04979816 RMS(Int)=  0.00135928
 Iteration  2 RMS(Cart)=  0.00170757 RMS(Int)=  0.00014495
 Iteration  3 RMS(Cart)=  0.00000061 RMS(Int)=  0.00014495
 Variable       Old X    -DE/DX   Delta X   Delta X   Delta X     New X
                                 (Linear)    (Quad)   (Total)
    R1        1.82617  -0.02833   0.00000  -0.05166  -0.05166   1.77451
    R2        1.82618  -0.02832   0.00000  -0.05165  -0.05165   1.77453
    R3        3.45012   0.00578   0.00000   0.08842   0.08842   3.53854
    R4        1.83903  -0.02519   0.00000  -0.04713  -0.04713   1.79190
    R5        1.82518  -0.02995   0.00000  -0.05452  -0.05452   1.77066
    A1        1.89993  -0.00578   0.00000  -0.04781  -0.04813   1.85180
    A2        1.94918   0.00262   0.00000   0.00840   0.00824   1.95742
    A3        1.94512   0.00261   0.00000   0.00830   0.00813   1.95326
    A4        1.87961  -0.00565   0.00000  -0.03383  -0.03383   1.84578
    A5        3.14196   0.00150   0.00000   0.09158   0.09164   3.23360
    A6        3.13260   0.00003   0.00000   0.00145   0.00145   3.13406
    D1        2.08134   0.00204   0.00000   0.03583   0.03558   2.11692
    D2       -2.07270  -0.00205   0.00000  -0.03596  -0.03571  -2.10841
         Item               Value     Threshold  Converged?
 Maximum Force            0.029953     0.000450     NO 
 RMS     Force            0.015833     0.000300     NO 
 Maximum Displacement     0.071612     0.001800     NO 
 RMS     Displacement     0.049409     0.001200     NO 
 Predicted change in Energy=-3.640420D-03
 GradGradGradGradGradGradGradGradGradGradGradGradGradGradGradGradGradGrad

                          Input orientation:                          
 ---------------------------------------------------------------------
 Center     Atomic      Atomic             Coordinates (Angstroms)
 Number     Number       Type             X           Y           Z
 ---------------------------------------------------------------------
      1          8           0       -0.507827    0.206402   -0.146428
      2          1           0        0.164982   -0.367509    0.169382
      3          1           0       -0.322103    0.349890   -1.055667
      4          8           0       -3.064654   -0.929058    0.192613
      5          1           0       -2.220898   -0.503688    0.113331
      6          1           0       -3.586058   -0.362462    0.726524
 ---------------------------------------------------------------------
                    Distance matrix (angstroms):
                    1          2          3          4          5
     1  O    0.000000
     2  H    0.939033   0.000000
     3  H    0.939041   1.500886   0.000000
     4  O    2.818082   3.278174   3.273453   0.000000
     5  H    1.872516   2.390421   2.387588   0.948235   0.000000
     6  H    3.249794   3.792194   3.786429   0.936992   1.503200
                    6
     6  H    0.000000
 Symmetry turned off by external request.
 Stoichiometry    H4O2
 Framework group  C1[X(H4O2)]
 Deg. of freedom    12
 Full point group                 C1      NOp   1
 Rotational constants (GHZ):    229.7189631      6.8282711      6.8217867
 Standard basis: Aug-CC-pVQZ (5D, 7F)
 Integral buffers will be    131072 words long.
 Raffenetti 1 integral format.
 Two-electron integral symmetry is turned off.
   344 basis functions,   476 primitive gaussians,   430 cartesian basis functions
    10 alpha electrons       10 beta electrons
       nuclear repulsion energy        37.5920644875 Hartrees.
 NAtoms=    6 NActive=    6 NUniq=    6 SFac= 7.50D-01 NAtFMM=   80 NAOKFM=F Big=F
 One-electron integrals computed using PRISM.
 NBasis=   344 RedAO= T  NBF=   344
 NBsUse=   344 1.00D-06 NBFU=   344
 Initial guess read from the read-write file.
 B after Tr=     0.000000    0.000000    0.000000
         Rot=    1.000000    0.000000    0.000000    0.000000 Ang=   0.00 deg.
 Harris functional with IExCor=  205 diagonalized for initial guess.
 ExpMin= 2.36D-02 ExpMax= 6.14D+04 ExpMxC= 5.91D+02 IAcc=3 IRadAn=         0 AccDes= 0.00D+00
 HarFok:  IExCor=  205 AccDes= 0.00D+00 IRadAn=         0 IDoV= 1
 ScaDFX=  1.000000  1.000000  1.000000  1.000000
 FoFCou: FMM=F IPFlag=           0 FMFlag=      100000 FMFlg1=           0
         NFxFlg=           0 DoJE=T BraDBF=F KetDBF=T FulRan=T
         Omega=  0.000000  0.000000  1.000000  0.000000  0.000000 ICntrl=     500 IOpCl=  0
         NMat0=    1 NMatS0=    1 NMatT0=    0 NMatD0=    1 NMtDS0=    0 NMtDT0=    0
         I1Cent=           4 NGrid=           0.
 Symmetry not used in FoFCou.
 Requested convergence on RMS density matrix=1.00D-08 within 128 cycles.
 Requested convergence on MAX density matrix=1.00D-06.
 Requested convergence on             energy=1.00D-06.
 No special actions if energy rises.
 Initial convergence to 1.0D-05 achieved.  Increase integral accuracy.
 SCF Done:  E(RHF) =  -152.138323594     A.U. after    9 cycles
             Convg  =    0.6561D-08             -V/T =  1.9999
 Calling FoFJK, ICntrl=      2127 FMM=F ISym2X=0 I1Cent= 0 IOpClX= 0 NMat=1 NMatS=1 NMatT=0.
 -------------------------------------------------------------------
 Center     Atomic                   Forces (Hartrees/Bohr)
 Number     Number              X              Y              Z
 -------------------------------------------------------------------
      1        8           0.003198068    0.001515980   -0.000359880
      2        1           0.001497249   -0.001076668    0.001690411
      3        1          -0.000046478    0.001194992   -0.002194320
      4        8           0.002502642    0.000525039   -0.000648815
      5        1          -0.004572158   -0.002780322    0.000140544
      6        1          -0.002579323    0.000620978    0.001372060
 -------------------------------------------------------------------
 Cartesian Forces:  Max     0.004572158 RMS     0.001967719

 GradGradGradGradGradGradGradGradGradGradGradGradGradGradGradGradGradGrad
 Berny optimization.
 Using GEDIIS/GDIIS optimizer.
 Internal  Forces:  Max     0.004989463 RMS     0.001999523
 Search for a local minimum.
 Step number   2 out of a maximum of   23
 All quantities printed in internal units (Hartrees-Bohrs-Radians)
 Mixed Optimization -- RFO/linear search
 Update second derivatives using D2CorX and points    1    2
 DE= -3.59D-03 DEPred=-3.64D-03 R= 9.87D-01
 SS=  1.41D+00  RLast= 1.81D-01 DXNew= 5.0454D-01 5.4402D-01
 Trust test= 9.87D-01 RLast= 1.81D-01 DXMaxT set to 5.05D-01
 The second derivative matrix:
                          R1        R2        R3        R4        R5
           R1           0.55843
           R2           0.01717   0.55841
           R3           0.01772   0.01772   0.05450
           R4           0.00488   0.00488   0.01602   0.52327
           R5           0.01885   0.01884   0.01873   0.00572   0.56302
           A1          -0.00229  -0.00229   0.00506  -0.00434  -0.00227
           A2          -0.00455  -0.00455  -0.00074  -0.00326  -0.00486
           A3          -0.00459  -0.00459  -0.00073  -0.00330  -0.00491
           A4           0.01343   0.01342   0.00317   0.00913   0.01439
           A5           0.00077   0.00077  -0.00084   0.00103   0.00079
           A6           0.00001   0.00001  -0.00001   0.00001   0.00001
           D1          -0.01193  -0.01193   0.00025  -0.00964  -0.01268
           D2           0.01193   0.01193  -0.00025   0.00964   0.01268
                          A1        A2        A3        A4        A5
           A1           0.15781
           A2          -0.00072   0.16050
           A3          -0.00074   0.00050   0.16050
           A4           0.00180  -0.00164  -0.00165   0.16533
           A5           0.00045   0.00009   0.00009  -0.00019   0.01375
           A6           0.00001   0.00000   0.00000   0.00000   0.00000
           D1          -0.00263   0.00091   0.00091  -0.00325   0.00040
           D2           0.00263  -0.00091  -0.00091   0.00325  -0.00040
                          A6        D1        D2
           A6           0.01383
           D1           0.00001   0.00344
           D2          -0.00001  -0.00114   0.00344
 Use linear search instead of GDIIS.
     Eigenvalues ---    0.00230   0.01365   0.01383   0.05204   0.07553
     Eigenvalues ---    0.15938   0.16000   0.16539   0.52256   0.54125
     Eigenvalues ---    0.54192   0.601821000.00000
 RFO step:  Lambda=-5.31776220D-04 EMin= 2.29999990D-03
 Quartic linear search produced a step of -0.00864.
 Iteration  1 RMS(Cart)=  0.03719214 RMS(Int)=  0.00025184
 Iteration  2 RMS(Cart)=  0.00025367 RMS(Int)=  0.00002967
 Iteration  3 RMS(Cart)=  0.00000008 RMS(Int)=  0.00002967
 Variable       Old X    -DE/DX   Delta X   Delta X   Delta X     New X
                                 (Linear)    (Quad)   (Total)
    R1        1.77451   0.00230   0.00045   0.00025   0.00069   1.77521
    R2        1.77453   0.00230   0.00045   0.00025   0.00069   1.77522
    R3        3.53854   0.00499  -0.00076   0.09108   0.09032   3.62886
    R4        1.79190  -0.00038   0.00041  -0.00433  -0.00393   1.78798
    R5        1.77066   0.00259   0.00047   0.00055   0.00103   1.77168
    A1        1.85180   0.00102   0.00042   0.00865   0.00901   1.86081
    A2        1.95742   0.00031  -0.00007   0.00564   0.00554   1.96295
    A3        1.95326   0.00030  -0.00007   0.00563   0.00553   1.95878
    A4        1.84578   0.00263   0.00029   0.01359   0.01388   1.85966
    A5        3.23360   0.00047  -0.00079   0.02894   0.02816   3.26176
    A6        3.13406   0.00002  -0.00001   0.00136   0.00135   3.13541
    D1        2.11692  -0.00081  -0.00031  -0.00694  -0.00730   2.10962
    D2       -2.10841   0.00080   0.00031   0.00537   0.00573  -2.10268
         Item               Value     Threshold  Converged?
 Maximum Force            0.004989     0.000450     NO 
 RMS     Force            0.002000     0.000300     NO 
 Maximum Displacement     0.069389     0.001800     NO 
 RMS     Displacement     0.037238     0.001200     NO 
 Predicted change in Energy=-2.673541D-04
 GradGradGradGradGradGradGradGradGradGradGradGradGradGradGradGradGradGrad

                          Input orientation:                          
 ---------------------------------------------------------------------
 Center     Atomic      Atomic             Coordinates (Angstroms)
 Number     Number       Type             X           Y           Z
 ---------------------------------------------------------------------
      1          8           0       -0.480606    0.208990   -0.155726
      2          1           0        0.190816   -0.364732    0.164443
      3          1           0       -0.297626    0.355312   -1.065448
      4          8           0       -3.081976   -0.930131    0.198797
      5          1           0       -2.244390   -0.496069    0.126315
      6          1           0       -3.622777   -0.379796    0.731374
 ---------------------------------------------------------------------
                    Distance matrix (angstroms):
                    1          2          3          4          5
     1  O    0.000000
     2  H    0.939399   0.000000
     3  H    0.939407   1.506542   0.000000
     4  O    2.861889   3.321448   3.317120   0.000000
     5  H    1.920310   2.439043   2.436194   0.946157   0.000000
     6  H    3.317658   3.855532   3.850401   0.937535   1.509823
                    6
     6  H    0.000000
 Symmetry turned off by external request.
 Stoichiometry    H4O2
 Framework group  C1[X(H4O2)]
 Deg. of freedom    12
 Full point group                 C1      NOp   1
 Rotational constants (GHZ):    231.3334101      6.6192715      6.6103706
 Standard basis: Aug-CC-pVQZ (5D, 7F)
 Integral buffers will be    131072 words long.
 Raffenetti 1 integral format.
 Two-electron integral symmetry is turned off.
   344 basis functions,   476 primitive gaussians,   430 cartesian basis functions
    10 alpha electrons       10 beta electrons
       nuclear repulsion energy        37.2786922006 Hartrees.
 NAtoms=    6 NActive=    6 NUniq=    6 SFac= 7.50D-01 NAtFMM=   80 NAOKFM=F Big=F
 One-electron integrals computed using PRISM.
 NBasis=   344 RedAO= T  NBF=   344
 NBsUse=   344 1.00D-06 NBFU=   344
 Initial guess read from the read-write file.
 B after Tr=     0.000000    0.000000    0.000000
         Rot=    1.000000    0.000000    0.000000    0.000000 Ang=   0.00 deg.
 Harris functional with IExCor=  205 diagonalized for initial guess.
 ExpMin= 2.36D-02 ExpMax= 6.14D+04 ExpMxC= 5.91D+02 IAcc=3 IRadAn=         0 AccDes= 0.00D+00
 HarFok:  IExCor=  205 AccDes= 0.00D+00 IRadAn=         0 IDoV= 1
 ScaDFX=  1.000000  1.000000  1.000000  1.000000
 FoFCou: FMM=F IPFlag=           0 FMFlag=      100000 FMFlg1=           0
         NFxFlg=           0 DoJE=T BraDBF=F KetDBF=T FulRan=T
         Omega=  0.000000  0.000000  1.000000  0.000000  0.000000 ICntrl=     500 IOpCl=  0
         NMat0=    1 NMatS0=    1 NMatT0=    0 NMatD0=    1 NMtDS0=    0 NMtDT0=    0
         I1Cent=           4 NGrid=           0.
 Symmetry not used in FoFCou.
 Requested convergence on RMS density matrix=1.00D-08 within 128 cycles.
 Requested convergence on MAX density matrix=1.00D-06.
 Requested convergence on             energy=1.00D-06.
 No special actions if energy rises.
 Initial convergence to 1.0D-05 achieved.  Increase integral accuracy.
 SCF Done:  E(RHF) =  -152.138750848     A.U. after    8 cycles
             Convg  =    0.3263D-08             -V/T =  1.9999
 Calling FoFJK, ICntrl=      2127 FMM=F ISym2X=0 I1Cent= 0 IOpClX= 0 NMat=1 NMatS=1 NMatT=0.
 -------------------------------------------------------------------
 Center     Atomic                   Forces (Hartrees/Bohr)
 Number     Number              X              Y              Z
 -------------------------------------------------------------------
      1        8           0.001511644    0.001363215    0.000207405
      2        1           0.001238353   -0.000679538    0.000565907
      3        1           0.000473513    0.000454427   -0.001372904
      4        8           0.000612071   -0.000858433   -0.000733174
      5        1          -0.002792690   -0.001083946    0.000451044
      6        1          -0.001042891    0.000804275    0.000881722
 -------------------------------------------------------------------
 Cartesian Forces:  Max     0.002792690 RMS     0.001109456

 GradGradGradGradGradGradGradGradGradGradGradGradGradGradGradGradGradGrad
 Berny optimization.
 Using GEDIIS/GDIIS optimizer.
 Internal  Forces:  Max     0.003465343 RMS     0.001233238
 Search for a local minimum.
 Step number   3 out of a maximum of   23
 All quantities printed in internal units (Hartrees-Bohrs-Radians)
 Mixed Optimization -- RFO/linear search
 Update second derivatives using D2CorX and points    1    2    3
 DE= -4.27D-04 DEPred=-2.67D-04 R= 1.60D+00
 SS=  1.41D+00  RLast= 9.69D-02 DXNew= 8.4853D-01 2.9071D-01
 Trust test= 1.60D+00 RLast= 9.69D-02 DXMaxT set to 5.05D-01
 The second derivative matrix:
                          R1        R2        R3        R4        R5
           R1           0.55508
           R2           0.01382   0.55507
           R3           0.00371   0.00372   0.01923
           R4           0.00871   0.00871   0.01477   0.53264
           R5           0.01484   0.01483   0.00366   0.00889   0.55836
           A1          -0.00723  -0.00722  -0.00496  -0.00711  -0.00731
           A2          -0.00688  -0.00688  -0.00934  -0.00098  -0.00764
           A3          -0.00692  -0.00692  -0.00941  -0.00093  -0.00769
           A4           0.00647   0.00646  -0.00345  -0.00143   0.00800
           A5          -0.00030  -0.00030  -0.00047  -0.00177  -0.00006
           A6          -0.00004  -0.00004  -0.00012  -0.00001  -0.00005
           D1          -0.01193  -0.01193  -0.00352  -0.00620  -0.01306
           D2           0.01194   0.01193   0.00355   0.00619   0.01307
                          A1        A2        A3        A4        A5
           A1           0.15569
           A2          -0.00390   0.15916
           A3          -0.00396  -0.00084   0.15917
           A4           0.00286  -0.00629  -0.00641   0.17618
           A5           0.00133  -0.00063  -0.00065   0.00310   0.01461
           A6          -0.00002  -0.00003  -0.00003   0.00000   0.00001
           D1          -0.00472   0.00104   0.00106  -0.00814  -0.00068
           D2           0.00473  -0.00103  -0.00106   0.00816   0.00068
                          A6        D1        D2
           A6           0.01383
           D1          -0.00001   0.00448
           D2           0.00001  -0.00218   0.00448
 Use linear search instead of GDIIS.
     Eigenvalues ---    0.00230   0.01378   0.01384   0.01812   0.07520
     Eigenvalues ---    0.15878   0.16000   0.18072   0.52897   0.54125
     Eigenvalues ---    0.54203   0.590011000.00000
 RFO step:  Lambda=-2.14700046D-04 EMin= 2.29993847D-03
 Quartic linear search produced a step of  2.00000.
 Iteration  1 RMS(Cart)=  0.07409182 RMS(Int)=  0.00970219
 Iteration  2 RMS(Cart)=  0.01190707 RMS(Int)=  0.00016429
 Iteration  3 RMS(Cart)=  0.00000511 RMS(Int)=  0.00016424
 Iteration  4 RMS(Cart)=  0.00000000 RMS(Int)=  0.00016424
 Variable       Old X    -DE/DX   Delta X   Delta X   Delta X     New X
                                 (Linear)    (Quad)   (Total)
    R1        1.77521   0.00149   0.00139  -0.00024   0.00115   1.77635
    R2        1.77522   0.00149   0.00138  -0.00024   0.00114   1.77637
    R3        3.62886   0.00347   0.18063   0.05458   0.23522   3.86408
    R4        1.78798   0.00042  -0.00785   0.00203  -0.00581   1.78216
    R5        1.77168   0.00157   0.00205  -0.00076   0.00129   1.77298
    A1        1.86081  -0.00004   0.01801  -0.01566   0.00199   1.86280
    A2        1.96295   0.00044   0.01107   0.00393   0.01481   1.97776
    A3        1.95878   0.00045   0.01105   0.00409   0.01495   1.97373
    A4        1.85966   0.00032   0.02776  -0.02118   0.00658   1.86624
    A5        3.26176   0.00004   0.05632  -0.02254   0.03383   3.29559
    A6        3.13541   0.00001   0.00270   0.00078   0.00349   3.13889
    D1        2.10962  -0.00028  -0.01460   0.00095  -0.01392   2.09571
    D2       -2.10268   0.00027   0.01147  -0.00860   0.00313  -2.09954
         Item               Value     Threshold  Converged?
 Maximum Force            0.003465     0.000450     NO 
 RMS     Force            0.001233     0.000300     NO 
 Maximum Displacement     0.131142     0.001800     NO 
 RMS     Displacement     0.085872     0.001200     NO 
 Predicted change in Energy=-3.296067D-04
 GradGradGradGradGradGradGradGradGradGradGradGradGradGradGradGradGradGrad

                          Input orientation:                          
 ---------------------------------------------------------------------
 Center     Atomic      Atomic             Coordinates (Angstroms)
 Number     Number       Type             X           Y           Z
 ---------------------------------------------------------------------
      1          8           0       -0.420021    0.218488   -0.174457
      2          1           0        0.254439   -0.350477    0.149570
      3          1           0       -0.233193    0.369461   -1.083262
      4          8           0       -3.137930   -0.941006    0.213115
      5          1           0       -2.307679   -0.498504    0.147717
      6          1           0       -3.692174   -0.404388    0.747071
 ---------------------------------------------------------------------
                    Distance matrix (angstroms):
                    1          2          3          4          5
     1  O    0.000000
     2  H    0.940006   0.000000
     3  H    0.940013   1.508632   0.000000
     4  O    2.980213   3.443970   3.440264   0.000000
     5  H    2.044781   2.566392   2.563624   0.943080   0.000000
     6  H    3.456035   3.991951   3.989175   0.938219   1.511592
                    6
     6  H    0.000000
 Symmetry turned off by external request.
 Stoichiometry    H4O2
 Framework group  C1[X(H4O2)]
 Deg. of freedom    12
 Full point group                 C1      NOp   1
 Rotational constants (GHZ):    233.8178932      6.1083442      6.0985803
 Standard basis: Aug-CC-pVQZ (5D, 7F)
 Integral buffers will be    131072 words long.
 Raffenetti 1 integral format.
 Two-electron integral symmetry is turned off.
   344 basis functions,   476 primitive gaussians,   430 cartesian basis functions
    10 alpha electrons       10 beta electrons
       nuclear repulsion energy        36.5060991320 Hartrees.
 NAtoms=    6 NActive=    6 NUniq=    6 SFac= 7.50D-01 NAtFMM=   80 NAOKFM=F Big=F
 One-electron integrals computed using PRISM.
 NBasis=   344 RedAO= T  NBF=   344
 NBsUse=   344 1.00D-06 NBFU=   344
 Initial guess read from the read-write file.
 B after Tr=     0.000000    0.000000    0.000000
         Rot=    1.000000    0.000000    0.000000    0.000000 Ang=   0.00 deg.
 Harris functional with IExCor=  205 diagonalized for initial guess.
 ExpMin= 2.36D-02 ExpMax= 6.14D+04 ExpMxC= 5.91D+02 IAcc=3 IRadAn=         0 AccDes= 0.00D+00
 HarFok:  IExCor=  205 AccDes= 0.00D+00 IRadAn=         0 IDoV= 1
 ScaDFX=  1.000000  1.000000  1.000000  1.000000
 FoFCou: FMM=F IPFlag=           0 FMFlag=      100000 FMFlg1=           0
         NFxFlg=           0 DoJE=T BraDBF=F KetDBF=T FulRan=T
         Omega=  0.000000  0.000000  1.000000  0.000000  0.000000 ICntrl=     500 IOpCl=  0
         NMat0=    1 NMatS0=    1 NMatT0=    0 NMatD0=    1 NMtDS0=    0 NMtDT0=    0
         I1Cent=           4 NGrid=           0.
 Symmetry not used in FoFCou.
 Requested convergence on RMS density matrix=1.00D-08 within 128 cycles.
 Requested convergence on MAX density matrix=1.00D-06.
 Requested convergence on             energy=1.00D-06.
 No special actions if energy rises.
 Initial convergence to 1.0D-05 achieved.  Increase integral accuracy.
 SCF Done:  E(RHF) =  -152.139220531     A.U. after    8 cycles
             Convg  =    0.6222D-08             -V/T =  2.0000
 Calling FoFJK, ICntrl=      2127 FMM=F ISym2X=0 I1Cent= 0 IOpClX= 0 NMat=1 NMatS=1 NMatT=0.
 -------------------------------------------------------------------
 Center     Atomic                   Forces (Hartrees/Bohr)
 Number     Number              X              Y              Z
 -------------------------------------------------------------------
      1        8          -0.000261404    0.000468328    0.000371340
      2        1           0.000541101   -0.000197418   -0.000068910
      3        1           0.000410681    0.000007922   -0.000414583
      4        8          -0.001176121   -0.001770499   -0.000581315
      5        1           0.000421737    0.000705019    0.000255885
      6        1           0.000064006    0.000786647    0.000437583
 -------------------------------------------------------------------
 Cartesian Forces:  Max     0.001770499 RMS     0.000646069

 GradGradGradGradGradGradGradGradGradGradGradGradGradGradGradGradGradGrad
 Berny optimization.
 Using GEDIIS/GDIIS optimizer.
 Internal  Forces:  Max     0.001430659 RMS     0.000626808
 Search for a local minimum.
 Step number   4 out of a maximum of   23
 All quantities printed in internal units (Hartrees-Bohrs-Radians)
 Mixed Optimization -- En-DIIS/RFO-DIIS
 Update second derivatives using D2CorX and points    1    2    3    4
 DE= -4.70D-04 DEPred=-3.30D-04 R= 1.42D+00
 SS=  1.41D+00  RLast= 2.39D-01 DXNew= 8.4853D-01 7.1759D-01
 Trust test= 1.42D+00 RLast= 2.39D-01 DXMaxT set to 7.18D-01
 The second derivative matrix:
                          R1        R2        R3        R4        R5
           R1           0.55571
           R2           0.01445   0.55570
           R3           0.00173   0.00174   0.01291
           R4           0.01186   0.01186   0.00944   0.54379
           R5           0.01589   0.01588   0.00097   0.01292   0.55989
           A1          -0.00908  -0.00908  -0.00048  -0.01133  -0.00925
           A2          -0.00815  -0.00814  -0.00887  -0.00269  -0.00904
           A3          -0.00818  -0.00818  -0.00898  -0.00260  -0.00909
           A4           0.00531   0.00531   0.00016  -0.00774   0.00655
           A5          -0.00024  -0.00024  -0.00067  -0.00291  -0.00012
           A6          -0.00004  -0.00004  -0.00016  -0.00002  -0.00005
           D1          -0.01352  -0.01351  -0.00076  -0.00807  -0.01470
           D2           0.01352   0.01351   0.00084   0.00804   0.01470
                          A1        A2        A3        A4        A5
           A1           0.15546
           A2          -0.00380   0.15937
           A3          -0.00388  -0.00063   0.15938
           A4           0.00496  -0.00606  -0.00622   0.18120
           A5           0.00229  -0.00050  -0.00053   0.00426   0.01469
           A6           0.00000  -0.00003  -0.00003   0.00001   0.00000
           D1          -0.00557   0.00128   0.00130  -0.00830  -0.00032
           D2           0.00557  -0.00127  -0.00130   0.00833   0.00033
                          A6        D1        D2
           A6           0.01383
           D1           0.00000   0.00412
           D2           0.00000  -0.00183   0.00414
 Use linear search instead of GDIIS.
     Eigenvalues ---    0.00230   0.01155   0.01384   0.01433   0.07264
     Eigenvalues ---    0.15899   0.16000   0.18586   0.53586   0.54125
     Eigenvalues ---    0.54200   0.596821000.00000
 RFO step:  Lambda=-3.07149267D-05 EMin= 2.29955714D-03
 Quartic linear search produced a step of  0.35076.
 Iteration  1 RMS(Cart)=  0.03280299 RMS(Int)=  0.00011000
 Iteration  2 RMS(Cart)=  0.00009774 RMS(Int)=  0.00005491
 Iteration  3 RMS(Cart)=  0.00000000 RMS(Int)=  0.00005491
 Variable       Old X    -DE/DX   Delta X   Delta X   Delta X     New X
                                 (Linear)    (Quad)   (Total)
    R1        1.77635   0.00048   0.00040   0.00011   0.00051   1.77686
    R2        1.77637   0.00048   0.00040   0.00011   0.00051   1.77687
    R3        3.86408   0.00075   0.08250   0.00805   0.09055   3.95463
    R4        1.78216   0.00143  -0.00204   0.00277   0.00073   1.78289
    R5        1.77298   0.00066   0.00045   0.00052   0.00097   1.77395
    A1        1.86280  -0.00036   0.00070  -0.00262  -0.00204   1.86076
    A2        1.97776   0.00028   0.00519   0.00141   0.00653   1.98429
    A3        1.97373   0.00029   0.00524   0.00150   0.00668   1.98041
    A4        1.86624  -0.00109   0.00231  -0.00804  -0.00573   1.86051
    A5        3.29559  -0.00034   0.01187  -0.02436  -0.01247   3.28312
    A6        3.13889   0.00000   0.00122   0.00020   0.00142   3.14031
    D1        2.09571   0.00001  -0.00488  -0.00471  -0.00968   2.08602
    D2       -2.09954  -0.00001   0.00110  -0.00078   0.00041  -2.09913
         Item               Value     Threshold  Converged?
 Maximum Force            0.001431     0.000450     NO 
 RMS     Force            0.000627     0.000300     NO 
 Maximum Displacement     0.053766     0.001800     NO 
 RMS     Displacement     0.032747     0.001200     NO 
 Predicted change in Energy=-2.805023D-05
 GradGradGradGradGradGradGradGradGradGradGradGradGradGradGradGradGradGrad

                          Input orientation:                          
 ---------------------------------------------------------------------
 Center     Atomic      Atomic             Coordinates (Angstroms)
 Number     Number       Type             X           Y           Z
 ---------------------------------------------------------------------
      1          8           0       -0.400491    0.221763   -0.180561
      2          1           0        0.278475   -0.341044    0.145583
      3          1           0       -0.207983    0.377502   -1.087652
      4          8           0       -3.166382   -0.948452    0.218524
      5          1           0       -2.332079   -0.513740    0.147150
      6          1           0       -3.708098   -0.402454    0.756712
 ---------------------------------------------------------------------
                    Distance matrix (angstroms):
                    1          2          3          4          5
     1  O    0.000000
     2  H    0.940275   0.000000
     3  H    0.940281   1.507918   0.000000
     4  O    3.029657   3.498757   3.495193   0.000000
     5  H    2.092700   2.616261   2.613586   0.943467   0.000000
     6  H    3.494051   4.033610   4.032470   0.938732   1.509098
                    6
     6  H    0.000000
 Symmetry turned off by external request.
 Stoichiometry    H4O2
 Framework group  C1[X(H4O2)]
 Deg. of freedom    12
 Full point group                 C1      NOp   1
 Rotational constants (GHZ):    233.8601971      5.9157354      5.9066669
 Standard basis: Aug-CC-pVQZ (5D, 7F)
 Integral buffers will be    131072 words long.
 Raffenetti 1 integral format.
 Two-electron integral symmetry is turned off.
   344 basis functions,   476 primitive gaussians,   430 cartesian basis functions
    10 alpha electrons       10 beta electrons
       nuclear repulsion energy        36.2045098462 Hartrees.
 NAtoms=    6 NActive=    6 NUniq=    6 SFac= 7.50D-01 NAtFMM=   80 NAOKFM=F Big=F
 One-electron integrals computed using PRISM.
 NBasis=   344 RedAO= T  NBF=   344
 NBsUse=   344 1.00D-06 NBFU=   344
 Initial guess read from the read-write file.
 B after Tr=     0.000000    0.000000    0.000000
         Rot=    1.000000    0.000000    0.000000    0.000000 Ang=   0.00 deg.
 Harris functional with IExCor=  205 diagonalized for initial guess.
 ExpMin= 2.36D-02 ExpMax= 6.14D+04 ExpMxC= 5.91D+02 IAcc=3 IRadAn=         0 AccDes= 0.00D+00
 HarFok:  IExCor=  205 AccDes= 0.00D+00 IRadAn=         0 IDoV= 1
 ScaDFX=  1.000000  1.000000  1.000000  1.000000
 FoFCou: FMM=F IPFlag=           0 FMFlag=      100000 FMFlg1=           0
         NFxFlg=           0 DoJE=T BraDBF=F KetDBF=T FulRan=T
         Omega=  0.000000  0.000000  1.000000  0.000000  0.000000 ICntrl=     500 IOpCl=  0
         NMat0=    1 NMatS0=    1 NMatT0=    0 NMatD0=    1 NMtDS0=    0 NMtDT0=    0
         I1Cent=           4 NGrid=           0.
 Symmetry not used in FoFCou.
 Requested convergence on RMS density matrix=1.00D-08 within 128 cycles.
 Requested convergence on MAX density matrix=1.00D-06.
 Requested convergence on             energy=1.00D-06.
 No special actions if energy rises.
