 Entering Gaussian System, Link 0=/usr/local_rwth/sw/gaussian/LINUX_emt64/g09.a02/g09
 Input=Veresterung_irc.com
 Output=Veresterung_irc.log
 Initial command:
 /usr/local_rwth/sw/gaussian/LINUX_emt64/g09.a02/l1.exe /w0/tmp/slurm_dk918358.13809604/Gau-118491.inp -scrdir=/w0/tmp/slurm_dk918358.13809604/
 Entering Link 1 = /usr/local_rwth/sw/gaussian/LINUX_emt64/g09.a02/l1.exe PID=    118492.

 Copyright (c) 1988,1990,1992,1993,1995,1998,2003,2009, Gaussian, Inc.
                  All Rights Reserved.

 This is part of the Gaussian(R) 09 program.  It is based on
 the Gaussian(R) 03 system (copyright 2003, Gaussian, Inc.),
 the Gaussian(R) 98 system (copyright 1998, Gaussian, Inc.),
 the Gaussian(R) 94 system (copyright 1995, Gaussian, Inc.),
 the Gaussian 92(TM) system (copyright 1992, Gaussian, Inc.),
 the Gaussian 90(TM) system (copyright 1990, Gaussian, Inc.),
 the Gaussian 88(TM) system (copyright 1988, Gaussian, Inc.),
 the Gaussian 86(TM) system (copyright 1986, Carnegie Mellon
 University), and the Gaussian 82(TM) system (copyright 1983,
 Carnegie Mellon University). Gaussian is a federally registered
 trademark of Gaussian, Inc.

 This software contains proprietary and confidential information,
 including trade secrets, belonging to Gaussian, Inc.

 This software is provided under written license and may be
 used, copied, transmitted, or stored only in accord with that
 written license.

 The following legend is applicable only to US Government
 contracts under FAR:

                    RESTRICTED RIGHTS LEGEND

 Use, reproduction and disclosure by the US Government is
 subject to restrictions as set forth in subparagraphs (a)
 and (c) of the Commercial Computer Software - Restricted
 Rights clause in FAR 52.227-19.

 Gaussian, Inc.
 340 Quinnipiac St., Bldg. 40, Wallingford CT 06492


 ---------------------------------------------------------------
 Warning -- This program may not be used in any manner that
 competes with the business of Gaussian, Inc. or will provide
 assistance to any competitor of Gaussian, Inc.  The licensee
 of this program is prohibited from giving any competitor of
 Gaussian, Inc. access to this program.  By using this program,
 the user acknowledges that Gaussian, Inc. is engaged in the
 business of creating and licensing software in the field of
 computational chemistry and represents and warrants to the
 licensee that it is not a competitor of Gaussian, Inc. and that
 it will not use this program in any manner prohibited above.
 ---------------------------------------------------------------


 Cite this work as:
 Gaussian 09, Revision A.02,
 M. J. Frisch, G. W. Trucks, H. B. Schlegel, G. E. Scuseria,
 M. A. Robb, J. R. Cheeseman, G. Scalmani, V. Barone, B. Mennucci,
 G. A. Petersson, H. Nakatsuji, M. Caricato, X. Li, H. P. Hratchian,
 A. F. Izmaylov, J. Bloino, G. Zheng, J. L. Sonnenberg, M. Hada,
 M. Ehara, K. Toyota, R. Fukuda, J. Hasegawa, M. Ishida, T. Nakajima,
 Y. Honda, O. Kitao, H. Nakai, T. Vreven, J. A. Montgomery, Jr.,
 J. E. Peralta, F. Ogliaro, M. Bearpark, J. J. Heyd, E. Brothers,
 K. N. Kudin, V. N. Staroverov, R. Kobayashi, J. Normand,
 K. Raghavachari, A. Rendell, J. C. Burant, S. S. Iyengar, J. Tomasi,
 M. Cossi, N. Rega, J. M. Millam, M. Klene, J. E. Knox, J. B. Cross,
 V. Bakken, C. Adamo, J. Jaramillo, R. Gomperts, R. E. Stratmann,
 O. Yazyev, A. J. Austin, R. Cammi, C. Pomelli, J. W. Ochterski,
 R. L. Martin, K. Morokuma, V. G. Zakrzewski, G. A. Voth,
 P. Salvador, J. J. Dannenberg, S. Dapprich, A. D. Daniels,
 O. Farkas, J. B. Foresman, J. V. Ortiz, J. Cioslowski,
 and D. J. Fox, Gaussian, Inc., Wallingford CT, 2009.

 ******************************************
 Gaussian 09:  EM64L-G09RevA.02 11-Jun-2009
                11-May-2020
 ******************************************
 %nprocshared=8
 Will use up to    8 processors via shared memory.
 %mem=8GB
 %chk=Veresterung_irc.chk
 Default route: MaxDisk=200000000
 ----------------------------------------------------------------------
 # irc=(calcfc,recorrect=always,maxpoints=100,recalc=3) b3lyp/6-31++g(d
 ,p) nosymm
 ----------------------------------------------------------------------
 1/10=4,14=-1,18=20,26=3,38=1,42=100,44=3,71=3,131=3/1,23;
 2/9=110,12=2,15=1,17=6,18=5,29=1,40=1/2;
 3/5=1,6=6,7=1111,11=2,16=1,25=1,30=1,71=2,74=-5/1,2,3;
 4//1;
 5/5=2,38=5/2;
 8/6=4,10=90,11=11/1;
 11/6=1,8=1,9=11,15=111,16=1,31=1/1,2,10;
 10/6=1,7=6,13=1,31=1/2;
 6/7=2,8=2,9=2,10=2,28=1/1;
 7/10=1,18=20,25=1,30=1/1,2,3,16;
 1/10=4,14=-1,18=20,42=100,44=3,71=3,131=3/23(3);
 2/9=110,15=1,29=1/2;
 7/9=1,25=1,30=1,44=-1/16;
 99//99;
 2/9=110,15=1,29=1/2;
 3/5=1,6=6,7=1111,11=2,16=1,25=1,30=1,71=2,74=-5/1,2,3;
 4/5=5,16=3/1;
 5/5=2,38=5/2;
 8/6=4,10=90,11=11/1;
 11/6=1,8=1,9=11,15=111,16=1,31=1/1,2,10;
 10/6=1,7=6,13=1,31=1/2;
 7/10=1,18=20,25=1,30=1/1,2,3,16;
 1/14=-1,18=20,42=100,44=3,71=3,131=3/23(-8);
 2/9=110,15=1,29=1/2;
 6/7=2,8=2,9=2,10=2,19=2,28=1/1;
 7/9=1,25=1,30=1,44=-1/16;
 99/9=1/99;
 -----------
 Veresterung
 -----------
 Symbolic Z-matrix:
 Charge =  0 Multiplicity = 1
 C                    -1.89793   0.18789   0.07406
 H                    -2.79061   0.7789    0.30053
 H                    -1.04596   0.55101   0.65869
 H                    -1.67665   0.24686  -0.99786
 C                     1.75384  -1.01353  -0.15609
 H                     1.16905  -0.86008  -1.09825
 O                    -1.06681  -1.9592    0.24431
 H                    -0.92368  -2.29128   1.14614
 O                    -2.25665  -1.13786   0.45115
 O                     1.97624  -2.30533  -0.05444
 H                     1.58993  -2.86693  -0.75946

 IRC-IRC-IRC-IRC-IRC-IRC-IRC-IRC-IRC-IRC-IRC-IRC-IRC-IRC-IRC-IRC-IRC-IRC
 ------------------------------------------------------------------------
 INPUT DATA FOR L123
 ------------------------------------------------------------------------
 GENERAL PARAMETERS:
 Follow reaction path in both directions.
 Maximum points per path      = 100
 Step size                    =   0.100 bohr
 Integration scheme           = HPC
    Redo corrector integration= Always
    Max correction cycles     =  20
 Initial Hessian              = CalcFC
 Hessian evaluation           = Every   3 predictor steps
    Hessian updating method   = Bofill
 ------------------------------------------------------------------------
 IRC-IRC-IRC-IRC-IRC-IRC-IRC-IRC-IRC-IRC-IRC-IRC-IRC-IRC-IRC-IRC-IRC-IRC
                          Input orientation:
 ---------------------------------------------------------------------
 Center     Atomic      Atomic             Coordinates (Angstroms)
 Number     Number       Type             X           Y           Z
 ---------------------------------------------------------------------
      1          6           0       -1.897927    0.187890    0.074057
      2          1           0       -2.790611    0.778903    0.300530
      3          1           0       -1.045961    0.551010    0.658694
      4          1           0       -1.676652    0.246862   -0.997864
      5          6           0        1.753835   -1.013525   -0.156091
      6          1           0        1.169054   -0.860075   -1.098246
      7          8           0       -1.066805   -1.959202    0.244313
      8          1           0       -0.923676   -2.291279    1.146139
      9          8           0       -2.256649   -1.137860    0.451147
     10          8           0        1.976243   -2.305325   -0.054439
     11          1           0        1.589926   -2.866927   -0.759464
 ---------------------------------------------------------------------
                    Distance matrix (angstroms):
                    1          2          3          4          5
     1  C    0.000000
     2  H    1.094290   0.000000
     3  H    1.095218   1.795556   0.000000
     4  H    1.096109   1.791591   1.798461   0.000000
     5  C    3.851199   4.906454   3.309154   3.750386   0.000000
     6  H    3.446578   4.507967   3.159793   3.055066   1.119452
     7  O    2.308626   3.236029   2.544270   2.604157   3.001773
     8  H    2.871377   3.691411   2.886375   3.406741   3.239988
     9  O    1.424251   1.995440   2.088330   2.086501   4.058100
    10  O    4.608885   5.688705   4.219114   4.554926   1.314742
    11  H    4.710816   5.796962   4.543277   4.519187   1.956023
                    6          7          8          9         10
     6  H    0.000000
     7  O    2.830125   0.000000
     8  H    3.386019   0.971623   0.000000
     9  O    3.770043   1.460518   1.894784   0.000000
    10  O    1.956996   3.077206   3.138649   4.419951   0.000000
    11  H    2.078307   2.981569   3.206382   4.387641   0.980662
                   11
    11  H    0.000000
 Symmetry turned off by external request.
 Stoichiometry    C2H6O3
 Framework group  C1[X(C2H6O3)]
 Deg. of freedom    27
 Full point group                 C1      NOp   1
 Rotational constants (GHZ):     10.1496206      1.8244259      1.5852362
 Standard basis: 6-31++G(d,p) (6D, 7F)
 Integral buffers will be    131072 words long.
 Raffenetti 2 integral format.
 Two-electron integral symmetry is turned off.
   131 basis functions,   208 primitive gaussians,   131 cartesian basis functions
    21 alpha electrons       21 beta electrons
       nuclear repulsion energy       170.0843183469 Hartrees.
 NAtoms=   11 NActive=   11 NUniq=   11 SFac= 7.50D-01 NAtFMM=   80 NAOKFM=F Big=F
 One-electron integrals computed using PRISM.
 NBasis=   131 RedAO= T  NBF=   131
 NBsUse=   131 1.00D-06 NBFU=   131
 Harris functional with IExCor=  402 diagonalized for initial guess.
 ExpMin= 3.60D-02 ExpMax= 5.48D+03 ExpMxC= 8.25D+02 IAcc=3 IRadAn=         0 AccDes= 0.00D+00
 HarFok:  IExCor=  402 AccDes= 0.00D+00 IRadAn=         0 IDoV= 1
 ScaDFX=  1.000000  1.000000  1.000000  1.000000
 FoFCou: FMM=F IPFlag=           0 FMFlag=      100000 FMFlg1=           0
         NFxFlg=           0 DoJE=T BraDBF=F KetDBF=T FulRan=T
         Omega=  0.000000  0.000000  1.000000  0.000000  0.000000 ICntrl=     500 IOpCl=  0
         NMat0=    1 NMatS0=    1 NMatT0=    0 NMatD0=    1 NMtDS0=    0 NMtDT0=    0
         I1Cent=           4 NGrid=           0.
 Symmetry not used in FoFCou.
 Requested convergence on RMS density matrix=1.00D-08 within 128 cycles.
 Requested convergence on MAX density matrix=1.00D-06.
 Requested convergence on             energy=1.00D-06.
 No special actions if energy rises.
 Keep R1 ints in memory in canonical form, NReq=38698576.
 SCF Done:  E(RB3LYP) =  -305.292980039     A.U. after   12 cycles
             Convg  =    0.8137D-08             -V/T =  2.0091
 Range of M.O.s used for correlation:     1   131
 NBasis=   131 NAE=    21 NBE=    21 NFC=     0 NFV=     0
 NROrb=    131 NOA=    21 NOB=    21 NVA=   110 NVB=   110

 **** Warning!!: The largest alpha MO coefficient is  0.14731164D+02

 Symmetrizing basis deriv contribution to polar:
 IMax=3 JMax=2 DiffMx= 0.00D+00
 G2DrvN: will do    12 centers at a time, making    1 passes doing MaxLOS=2.
 Calling FoFCou, ICntrl=  3107 FMM=F I1Cent=   0 AccDes= 0.00D+00.
 FoFDir/FoFCou used for L=0 through L=2.
 End of G2Drv Frequency-dependent properties file   721 does not exist.
 End of G2Drv Frequency-dependent properties file   722 does not exist.
          IDoAtm=11111111111
          Differentiating once with respect to nuclear coordinates.
          Keep R1 ints in memory in canonical form, NReq=38204533.
          There are    36 degrees of freedom in the 1st order CPHF.  IDoFFX=5.
     30 vectors produced by pass  0 Test12= 6.42D-11 2.78D-07 XBig12= 9.68D-02 1.93D-01.
 AX will form    30 AO Fock derivatives at one time.
     30 vectors produced by pass  1 Test12= 6.42D-11 2.78D-07 XBig12= 2.49D-02 3.59D-02.
     30 vectors produced by pass  2 Test12= 6.42D-11 2.78D-07 XBig12= 3.26D-04 2.68D-03.
     30 vectors produced by pass  3 Test12= 6.42D-11 2.78D-07 XBig12= 1.32D-06 2.06D-04.
     18 vectors produced by pass  4 Test12= 6.42D-11 2.78D-07 XBig12= 3.10D-09 9.62D-06.
      1 vectors produced by pass  5 Test12= 6.42D-11 2.78D-07 XBig12= 3.50D-12 3.99D-07.
 Inverted reduced A of dimension   139 with in-core refinement.
 End of Minotr Frequency-dependent properties file   721 does not exist.
 End of Minotr Frequency-dependent properties file   722 does not exist.

 **********************************************************************

            Population analysis using the SCF density.

 **********************************************************************

 Alpha  occ. eigenvalues --  -19.24676 -19.22873 -19.22825 -10.26354 -10.24541
 Alpha  occ. eigenvalues --   -1.13356  -1.11402  -0.93259  -0.68738  -0.67773
 Alpha  occ. eigenvalues --   -0.55222  -0.54602  -0.48911  -0.47550  -0.43388
 Alpha  occ. eigenvalues --   -0.42852  -0.41059  -0.38449  -0.33117  -0.28111
 Alpha  occ. eigenvalues --   -0.22692
 Alpha virt. eigenvalues --   -0.06331  -0.03356  -0.00738  -0.00209   0.00683
 Alpha virt. eigenvalues --    0.02721   0.03898   0.04992   0.06939   0.07643
 Alpha virt. eigenvalues --    0.08241   0.10604   0.11626   0.12874   0.13835
 Alpha virt. eigenvalues --    0.14791   0.15232   0.17588   0.17725   0.18221
 Alpha virt. eigenvalues --    0.18842   0.19651   0.20829   0.23380   0.23752
 Alpha virt. eigenvalues --    0.24393   0.26864   0.27100   0.28441   0.29817
 Alpha virt. eigenvalues --    0.30299   0.32959   0.34436   0.36680   0.38475
 Alpha virt. eigenvalues --    0.41106   0.68544   0.69633   0.72096   0.73889
 Alpha virt. eigenvalues --    0.74583   0.75584   0.88462   0.92294   0.93363
 Alpha virt. eigenvalues --    0.95699   0.97275   1.06365   1.08638   1.10182
 Alpha virt. eigenvalues --    1.11859   1.13366   1.15936   1.16675   1.20844
 Alpha virt. eigenvalues --    1.22345   1.22872   1.25871   1.28223   1.36602
 Alpha virt. eigenvalues --    1.40644   1.42543   1.46270   1.48925   1.54239
 Alpha virt. eigenvalues --    1.55534   1.56740   1.62530   1.65939   1.70915
 Alpha virt. eigenvalues --    1.77535   1.90602   1.90681   1.93606   1.95499
 Alpha virt. eigenvalues --    2.01329   2.04070   2.04949   2.09457   2.14157
 Alpha virt. eigenvalues --    2.21088   2.28732   2.35905   2.38820   2.42058
 Alpha virt. eigenvalues --    2.43928   2.48934   2.54580   2.58694   2.59492
 Alpha virt. eigenvalues --    2.63033   2.63097   2.76430   2.82565   2.83330
 Alpha virt. eigenvalues --    2.85336   2.91397   2.95858   3.14223   3.22168
 Alpha virt. eigenvalues --    3.26120   3.40541   3.41013   3.44116   3.46873
 Alpha virt. eigenvalues --    4.04845   4.16982   4.31123   4.33263   4.49687
          Condensed to atoms (all electrons):
              1          2          3          4          5          6
     1  C    4.989937   0.399395   0.404190   0.396990   0.000213   0.003282
     2  H    0.399395   0.519143  -0.020950  -0.029337  -0.001742   0.001785
     3  H    0.404190  -0.020950   0.539665  -0.047077  -0.043707   0.024417
     4  H    0.396990  -0.029337  -0.047077   0.574749   0.038523  -0.035207
     5  C    0.000213  -0.001742  -0.043707   0.038523   6.264118  -0.194860
     6  H    0.003282   0.001785   0.024417  -0.035207  -0.194860   1.142660
     7  O   -0.052023   0.011343  -0.001466  -0.001602   0.010666  -0.012715
     8  H   -0.002730  -0.000916   0.006244  -0.003956  -0.014361   0.010476
     9  O    0.142459  -0.043413  -0.048034  -0.043771   0.001083   0.001338
    10  O   -0.001329  -0.000173   0.007083  -0.006384   0.010918   0.071257
    11  H   -0.001566  -0.000480  -0.004595   0.007107   0.127607  -0.169325
              7          8          9         10         11
     1  C   -0.052023  -0.002730   0.142459  -0.001329  -0.001566
     2  H    0.011343  -0.000916  -0.043413  -0.000173  -0.000480
     3  H   -0.001466   0.006244  -0.048034   0.007083  -0.004595
     4  H   -0.001602  -0.003956  -0.043771  -0.006384   0.007107
     5  C    0.010666  -0.014361   0.001083   0.010918   0.127607
     6  H   -0.012715   0.010476   0.001338   0.071257  -0.169325
     7  O    8.034924   0.244871   0.157600   0.006735   0.007084
     8  H    0.244871   0.436958  -0.042803   0.006334  -0.006414
     9  O    0.157600  -0.042803   8.070770   0.000898   0.000804
    10  O    0.006735   0.006334   0.000898   8.072125   0.107616
    11  H    0.007084  -0.006414   0.000804   0.107616   0.600189
 Mulliken atomic charges:
              1
     1  C   -0.278817
     2  H    0.165344
     3  H    0.184229
     4  H    0.149964
     5  C   -0.198457
     6  H    0.156892
     7  O   -0.405417
     8  H    0.366297
     9  O   -0.196931
    10  O   -0.275079
    11  H    0.331974
 Sum of Mulliken atomic charges =   0.00000
 Mulliken charges with hydrogens summed into heavy atoms:
              1
     1  C    0.220721
     5  C   -0.041565
     7  O   -0.039120
     9  O   -0.196931
    10  O    0.056895
 Sum of Mulliken charges with hydrogens summed into heavy atoms =   0.00000
 APT atomic charges:
              1
     1  C   -0.767926
     2  H    0.585072
     3  H    0.143525
     4  H    0.259724
     5  C   -0.618020
     6  H    0.279896
     7  O   -0.658268
     8  H    0.640286
     9  O   -0.211282
    10  O   -0.257554
    11  H    0.604547
 Sum of APT charges=   0.00000
 APT Atomic charges with hydrogens summed into heavy atoms:
              1
     1  C    0.220395
     2  H    0.000000
     3  H    0.000000
     4  H    0.000000
     5  C   -0.338124
     6  H    0.000000
     7  O   -0.017982
     8  H    0.000000
     9  O   -0.211282
    10  O    0.346993
    11  H    0.000000
 Sum of APT charges=   0.00000
 Electronic spatial extent (au):  <R**2>=            960.2661
 Charge=              0.0000 electrons
 Dipole moment (field-independent basis, Debye):
    X=             -0.9665    Y=             -0.7206    Z=             -1.3202  Tot=              1.7878
 Quadrupole moment (field-independent basis, Debye-Ang):
   XX=            -38.7540   YY=            -25.3001   ZZ=            -28.3703
   XY=             -5.5977   XZ=             -4.8495   YZ=              1.3582
 Traceless Quadrupole moment (field-independent basis, Debye-Ang):
   XX=             -7.9459   YY=              5.5080   ZZ=              2.4379
   XY=             -5.5977   XZ=             -4.8495   YZ=              1.3582
 Octapole moment (field-independent basis, Debye-Ang**2):
  XXX=             21.0061  YYY=             86.6845  ZZZ=             -6.9178  XYY=             18.6223
  XXY=             50.9572  XXZ=            -12.2164  XZZ=              9.9558  YZZ=             28.3177
  YYZ=             -5.2068  XYZ=              9.8122
 Hexadecapole moment (field-independent basis, Debye-Ang**3):
 XXXX=           -703.7310 YYYY=           -382.3553 ZZZZ=            -55.5731 XXXY=             25.4024
 XXXZ=             21.7066 YYYX=             20.2182 YYYZ=             20.3055 ZZZX=             30.9050
 ZZZY=              5.7734 XXYY=           -200.1351 XXZZ=           -117.8578 YYZZ=            -64.7814
 XXYZ=             18.8857 YYXZ=            -17.2759 ZZXY=             13.9178
 N-N= 1.700843183469D+02 E-N=-1.056229684107D+03  KE= 3.025524205975D+02
  Exact polarizability:   0.000   0.000   0.000   0.000   0.000   0.000
 Approx polarizability:  59.035  -8.135  66.440   1.158  -1.195  52.461
 Calling FoFJK, ICntrl=    100147 FMM=F ISym2X=0 I1Cent= 0 IOpClX= 0 NMat=1 NMatS=1 NMatT=0.
 -------------------------------------------------------------------
 Center     Atomic                   Forces (Hartrees/Bohr)
 Number     Number              X              Y              Z
 -------------------------------------------------------------------
      1        6          -0.000531903   -0.000341639    0.000192480
      2        1          -0.000098294   -0.000005278   -0.000291515
      3        1          -0.000147101   -0.000017051    0.000207694
      4        1           0.000171676   -0.000096888    0.000106830
      5        6          -0.000355691   -0.000570351    0.000029988
      6        1           0.000055512    0.000557101    0.000074494
      7        8          -0.000426457   -0.000179979   -0.000493882
      8        1           0.000096338    0.000698352    0.000327630
      9        8           0.001312774    0.000127380   -0.000024512
     10        8          -0.000124125   -0.000165996   -0.000176367
     11        1           0.000047272   -0.000005649    0.000047160
 -------------------------------------------------------------------
 Cartesian Forces:  Max     0.001312774 RMS     0.000360961
 IRC-IRC-IRC-IRC-IRC-IRC-IRC-IRC-IRC-IRC-IRC-IRC-IRC-IRC-IRC-IRC-IRC-IRC
          ******** Start new reaction path calculation ********
 Supplied step size of   0.1000 bohr.
    Integration on MW PES will use step size of   0.1662 sqrt(amu)*bohr.
 Point Number:   0          Path Number:   1
 Calculating another point on the path.
 IRC-IRC-IRC-IRC-IRC-IRC-IRC-IRC-IRC-IRC-IRC-IRC-IRC-IRC-IRC-IRC-IRC-IRC
                          Input orientation:
 ---------------------------------------------------------------------
 Center     Atomic      Atomic             Coordinates (Angstroms)
 Number     Number       Type             X           Y           Z
 ---------------------------------------------------------------------
      1          6           0       -1.551890    1.480782   -0.035203
      2          1           0       -2.442236    2.072310    0.199231
      3          1           0       -0.694184    1.843707    0.541163
      4          1           0       -1.340603    1.538919   -1.109238
      5          6           0        2.082545    0.274447   -0.263092
      6          1           0        1.520406    0.421156   -1.220383
      7          8           0       -0.720260   -0.666784    0.129211
      8          1           0       -0.562318   -0.989672    1.032101
      9          8           0       -1.907630    0.155282    0.346016
     10          8           0        2.327253   -1.013658   -0.160953
     11          1           0        1.971849   -1.580235   -0.878882
 ---------------------------------------------------------------------
                    Distance matrix (angstroms):
                    1          2          3          4          5
     1  C    0.000000
     2  H    1.094340   0.000000
     3  H    1.095250   1.795790   0.000000
     4  H    1.096162   1.791701   1.798493   0.000000
     5  C    3.836182   4.890776   3.289320   3.746036   0.000000
     6  H    3.459257   4.521520   3.167192   3.073617   1.119789
     7  O    2.308826   3.236161   2.544199   2.604555   2.982538
     8  H    2.867321   3.688292   2.878618   3.403649   3.204812
     9  O    1.424369   1.995582   2.088375   2.086560   4.038156
    10  O    4.613653   5.692183   4.217414   4.568157   1.315116
    11  H    4.743243   5.829884   4.565921   4.555713   1.957370
                    6          7          8          9         10
     6  H    0.000000
     7  O    2.832950   0.000000
     8  H    3.376664   0.971809   0.000000
     9  O    3.778323   1.460357   1.895124   0.000000
    10  O    1.957571   3.080885   3.126271   4.422405   0.000000
    11  H    2.079902   3.016305   3.228408   4.422979   0.981195
                   11
    11  H    0.000000
 Symmetry turned off by external request.
 Stoichiometry    C2H6O3
 Framework group  C1[X(C2H6O3)]
 Deg. of freedom    27
 Full point group                 C1      NOp   1
 Rotational constants (GHZ):     10.1981034      1.8258228      1.5880477
 Standard basis: 6-31++G(d,p) (6D, 7F)
 Integral buffers will be    131072 words long.
 Raffenetti 2 integral format.
 Two-electron integral symmetry is turned off.
   131 basis functions,   208 primitive gaussians,   131 cartesian basis functions
    21 alpha electrons       21 beta electrons
       nuclear repulsion energy       170.1373956640 Hartrees.
 NAtoms=   11 NActive=   11 NUniq=   11 SFac= 7.50D-01 NAtFMM=   80 NAOKFM=F Big=F
 One-electron integrals computed using PRISM.
 NBasis=   131 RedAO= T  NBF=   131
 NBsUse=   131 1.00D-06 NBFU=   131
 Initial guess read from the read-write file.
 B after Tr=     0.000000    0.000000    0.000000
         Rot=    1.000000    0.000000    0.000000    0.000000 Ang=   0.00 deg.
 Harris functional with IExCor=  402 diagonalized for initial guess.
 ExpMin= 3.60D-02 ExpMax= 5.48D+03 ExpMxC= 8.25D+02 IAcc=3 IRadAn=         0 AccDes= 0.00D+00
 HarFok:  IExCor=  402 AccDes= 0.00D+00 IRadAn=         0 IDoV= 1
 ScaDFX=  1.000000  1.000000  1.000000  1.000000
 FoFCou: FMM=F IPFlag=           0 FMFlag=      100000 FMFlg1=           0
         NFxFlg=           0 DoJE=T BraDBF=F KetDBF=T FulRan=T
         Omega=  0.000000  0.000000  1.000000  0.000000  0.000000 ICntrl=     500 IOpCl=  0
         NMat0=    1 NMatS0=    1 NMatT0=    0 NMatD0=    1 NMtDS0=    0 NMtDT0=    0
         I1Cent=           4 NGrid=           0.
 Symmetry not used in FoFCou.
 Requested convergence on RMS density matrix=1.00D-08 within 128 cycles.
 Requested convergence on MAX density matrix=1.00D-06.
 Requested convergence on             energy=1.00D-06.
 No special actions if energy rises.
 Keep R1 ints in memory in canonical form, NReq=38698576.
 SCF Done:  E(RB3LYP) =  -305.292997367     A.U. after   11 cycles
             Convg  =    0.1757D-08             -V/T =  2.0091
 Range of M.O.s used for correlation:     1   131
 NBasis=   131 NAE=    21 NBE=    21 NFC=     0 NFV=     0
 NROrb=    131 NOA=    21 NOB=    21 NVA=   110 NVB=   110

 **** Warning!!: The largest alpha MO coefficient is  0.14661768D+02

 Symmetrizing basis deriv contribution to polar:
 IMax=3 JMax=2 DiffMx= 0.00D+00
 Calling FoFJK, ICntrl=      2147 FMM=F ISym2X=0 I1Cent= 0 IOpClX= 0 NMat=1 NMatS=1 NMatT=0.
 -------------------------------------------------------------------
 Center     Atomic                   Forces (Hartrees/Bohr)
 Number     Number              X              Y              Z
 -------------------------------------------------------------------
      1        6          -0.000525016   -0.000319106    0.000183407
      2        1          -0.000078906   -0.000011967   -0.000294046
      3        1          -0.000169461   -0.000026155    0.000186388
      4        1           0.000161584   -0.000098404    0.000135967
      5        6          -0.000526810   -0.000814501   -0.000182150
      6        1           0.000146798    0.000588517    0.000243575
      7        8          -0.000415131   -0.000222413   -0.000385279
      8        1           0.000083941    0.000748224    0.000183685
      9        8           0.001356914    0.000144181   -0.000007761
     10        8          -0.000268196   -0.000296108   -0.000474660
     11        1           0.000234283    0.000307735    0.000410874
 -------------------------------------------------------------------
 Cartesian Forces:  Max     0.001356914 RMS     0.000410468
 IRC-IRC-IRC-IRC-IRC-IRC-IRC-IRC-IRC-IRC-IRC-IRC-IRC-IRC-IRC-IRC-IRC-IRC
 Pt  1 Step number   1 out of a maximum of  20
 CORRECTOR INTEGRATION CONVERGENCE:
   Recorrection delta-x convergence threshold:    0.010000
   Delta-x Convergence NOT Met
 IRC-IRC-IRC-IRC-IRC-IRC-IRC-IRC-IRC-IRC-IRC-IRC-IRC-IRC-IRC-IRC-IRC-IRC
                          Input orientation:
 ---------------------------------------------------------------------
 Center     Atomic      Atomic             Coordinates (Angstroms)
 Number     Number       Type             X           Y           Z
 ---------------------------------------------------------------------
      1          6           0       -1.552942    1.479976   -0.034854
      2          1           0       -2.449234    2.068430    0.184012
      3          1           0       -0.705511    1.848400    0.553359
      4          1           0       -1.325685    1.536291   -1.105549
      5          6           0        2.089992    0.275511   -0.262446
      6          1           0        1.520885    0.432615   -1.213507
      7          8           0       -0.721248   -0.667854    0.131725
      8          1           0       -0.551527   -0.967229    1.041488
      9          8           0       -1.907371    0.154520    0.343998
     10          8           0        2.323707   -1.014217   -0.163387
     11          1           0        1.955866   -1.577454   -0.877008
 ---------------------------------------------------------------------
                    Distance matrix (angstroms):
                    1          2          3          4          5
     1  C    0.000000
     2  H    1.094312   0.000000
     3  H    1.095386   1.795940   0.000000
     4  H    1.095995   1.791229   1.798333   0.000000
     5  C    3.843631   4.900863   3.309736   3.737276   0.000000
     6  H    3.454649   4.515617   3.175390   3.054950   1.119411
     7  O    2.309251   3.236653   2.551384   2.598932   2.991384
     8  H    2.854847   3.681274   2.861773   3.387727   3.197228
     9  O    1.423371   1.995561   2.087470   2.085386   4.044914
    10  O    4.611499   5.692483   4.229003   4.550914   1.314471
    11  H    4.729571   5.815767   4.567861   4.529483   1.956823
                    6          7          8          9         10
     6  H    0.000000
     7  O    2.836872   0.000000
     8  H    3.367411   0.972676   0.000000
     9  O    3.775726   1.458852   1.892914   0.000000
    10  O    1.959744   3.078768   3.117837   4.418757   0.000000
    11  H    2.083943   3.001975   3.215591   4.406268   0.980713
                   11
    11  H    0.000000
 Symmetry turned off by external request.
 Stoichiometry    C2H6O3
 Framework group  C1[X(C2H6O3)]
 Deg. of freedom    27
 Full point group                 C1      NOp   1
 Rotational constants (GHZ):     10.1868325      1.8258513      1.5877752
 Standard basis: 6-31++G(d,p) (6D, 7F)
 Integral buffers will be    131072 words long.
 Raffenetti 2 integral format.
 Two-electron integral symmetry is turned off.
   131 basis functions,   208 primitive gaussians,   131 cartesian basis functions
    21 alpha electrons       21 beta electrons
       nuclear repulsion energy       170.1759611128 Hartrees.
 NAtoms=   11 NActive=   11 NUniq=   11 SFac= 7.50D-01 NAtFMM=   80 NAOKFM=F Big=F
 One-electron integrals computed using PRISM.
 NBasis=   131 RedAO= T  NBF=   131
 NBsUse=   131 1.00D-06 NBFU=   131
 Initial guess read from the read-write file.
 B after Tr=     0.000000    0.000000    0.000000
         Rot=    1.000000    0.000000    0.000000    0.000000 Ang=   0.00 deg.
 Harris functional with IExCor=  402 diagonalized for initial guess.
 ExpMin= 3.60D-02 ExpMax= 5.48D+03 ExpMxC= 8.25D+02 IAcc=3 IRadAn=         0 AccDes= 0.00D+00
 HarFok:  IExCor=  402 AccDes= 0.00D+00 IRadAn=         0 IDoV= 1
 ScaDFX=  1.000000  1.000000  1.000000  1.000000
 FoFCou: FMM=F IPFlag=           0 FMFlag=      100000 FMFlg1=           0
         NFxFlg=           0 DoJE=T BraDBF=F KetDBF=T FulRan=T
         Omega=  0.000000  0.000000  1.000000  0.000000  0.000000 ICntrl=     500 IOpCl=  0
         NMat0=    1 NMatS0=    1 NMatT0=    0 NMatD0=    1 NMtDS0=    0 NMtDT0=    0
         I1Cent=           4 NGrid=           0.
 Symmetry not used in FoFCou.
 Requested convergence on RMS density matrix=1.00D-08 within 128 cycles.
 Requested convergence on MAX density matrix=1.00D-06.
 Requested convergence on             energy=1.00D-06.
 No special actions if energy rises.
 Keep R1 ints in memory in canonical form, NReq=38698576.
 SCF Done:  E(RB3LYP) =  -305.293053465     A.U. after   10 cycles
             Convg  =    0.8953D-08             -V/T =  2.0091
 Range of M.O.s used for correlation:     1   131
 NBasis=   131 NAE=    21 NBE=    21 NFC=     0 NFV=     0
 NROrb=    131 NOA=    21 NOB=    21 NVA=   110 NVB=   110

 **** Warning!!: The largest alpha MO coefficient is  0.14728379D+02

 Symmetrizing basis deriv contribution to polar:
 IMax=3 JMax=2 DiffMx= 0.00D+00
 Calling FoFJK, ICntrl=      2147 FMM=F ISym2X=0 I1Cent= 0 IOpClX= 0 NMat=1 NMatS=1 NMatT=0.
 -------------------------------------------------------------------
 Center     Atomic                   Forces (Hartrees/Bohr)
 Number     Number              X              Y              Z
 -------------------------------------------------------------------
      1        6          -0.000143532    0.000044368   -0.000001254
      2        1          -0.000081894   -0.000063463   -0.000181627
      3        1          -0.000142570    0.000101186    0.000122667
      4        1           0.000167628   -0.000029847    0.000039574
      5        6          -0.000234792   -0.000091205    0.000378947
      6        1           0.000077006    0.000052443    0.000001976
      7        8           0.000133272   -0.000406432    0.000765105
      8        1           0.000227017    0.000644606   -0.000701266
      9        8           0.000257156   -0.000069045   -0.000007039
     10        8          -0.000313409   -0.000211898   -0.000341734
     11        1           0.000054116    0.000029287   -0.000075349
 -------------------------------------------------------------------
 Cartesian Forces:  Max     0.000765105 RMS     0.000271118
 IRC-IRC-IRC-IRC-IRC-IRC-IRC-IRC-IRC-IRC-IRC-IRC-IRC-IRC-IRC-IRC-IRC-IRC
 Error in corrector energy =          -0.0000013309
 Magnitude of corrector gradient =     0.0010201762
 Magnitude of analytic gradient =      0.0015574571
 Magnitude of difference =             0.0012163967
 Angle between gradients (degrees)=   51.3014
 Pt  1 Step number   2 out of a maximum of  20
 CORRECTOR INTEGRATION CONVERGENCE:
   Recorrection delta-x convergence threshold:    0.010000
   Delta-x Convergence NOT Met
 IRC-IRC-IRC-IRC-IRC-IRC-IRC-IRC-IRC-IRC-IRC-IRC-IRC-IRC-IRC-IRC-IRC-IRC
                          Input orientation:
 ---------------------------------------------------------------------
 Center     Atomic      Atomic             Coordinates (Angstroms)
 Number     Number       Type             X           Y           Z
 ---------------------------------------------------------------------
      1          6           0       -1.552752    1.479909   -0.034923
      2          1           0       -2.448158    2.068958    0.185815
      3          1           0       -0.704213    1.847064    0.552384
      4          1           0       -1.326981    1.536836   -1.105919
      5          6           0        2.092097    0.276116   -0.263034
      6          1           0        1.519757    0.432301   -1.212278
      7          8           0       -0.721060   -0.667690    0.132588
      8          1           0       -0.557963   -0.975326    1.039697
      9          8           0       -1.908224    0.154343    0.343570
     10          8           0        2.323315   -1.014101   -0.163423
     11          1           0        1.951621   -1.576878   -0.875338
 ---------------------------------------------------------------------
                    Distance matrix (angstroms):
                    1          2          3          4          5
     1  C    0.000000
     2  H    1.094284   0.000000
     3  H    1.095331   1.795816   0.000000
     4  H    1.096014   1.791303   1.798346   0.000000
     5  C    3.845267   4.902006   3.309401   3.740317   0.000000
     6  H    3.453108   4.514162   3.172006   3.055360   1.119389
     7  O    2.309101   3.236501   2.549607   2.600187   2.993516
     8  H    2.858774   3.683697   2.867882   3.392052   3.207185
     9  O    1.423637   1.995537   2.087714   2.085701   4.047884
    10  O    4.610910   5.691588   4.226650   4.551949   1.314550
    11  H    4.725555   5.811731   4.562370   4.527429   1.956588
                    6          7          8          9         10
     6  H    0.000000
     7  O    2.835473   0.000000
     8  H    3.371902   0.971642   0.000000
     9  O    3.774781   1.459317   1.893132   0.000000
    10  O    1.959051   3.078286   3.122622   4.419075   0.000000
    11  H    2.082508   2.997626   3.213601   4.402415   0.980662
                   11
    11  H    0.000000
 Symmetry turned off by external request.
 Stoichiometry    C2H6O3
 Framework group  C1[X(C2H6O3)]
 Deg. of freedom    27
 Full point group                 C1      NOp   1
 Rotational constants (GHZ):     10.1787685      1.8255419      1.5872063
 Standard basis: 6-31++G(d,p) (6D, 7F)
 Integral buffers will be    131072 words long.
 Raffenetti 2 integral format.
 Two-electron integral symmetry is turned off.
   131 basis functions,   208 primitive gaussians,   131 cartesian basis functions
    21 alpha electrons       21 beta electrons
       nuclear repulsion energy       170.1573084225 Hartrees.
 NAtoms=   11 NActive=   11 NUniq=   11 SFac= 7.50D-01 NAtFMM=   80 NAOKFM=F Big=F
 One-electron integrals computed using PRISM.
 NBasis=   131 RedAO= T  NBF=   131
 NBsUse=   131 1.00D-06 NBFU=   131
 Initial guess read from the read-write file.
 B after Tr=     0.000000    0.000000    0.000000
         Rot=    1.000000    0.000000    0.000000    0.000000 Ang=   0.00 deg.
 Harris functional with IExCor=  402 diagonalized for initial guess.
 ExpMin= 3.60D-02 ExpMax= 5.48D+03 ExpMxC= 8.25D+02 IAcc=3 IRadAn=         0 AccDes= 0.00D+00
 HarFok:  IExCor=  402 AccDes= 0.00D+00 IRadAn=         0 IDoV= 1
 ScaDFX=  1.000000  1.000000  1.000000  1.000000
 FoFCou: FMM=F IPFlag=           0 FMFlag=      100000 FMFlg1=           0
         NFxFlg=           0 DoJE=T BraDBF=F KetDBF=T FulRan=T
         Omega=  0.000000  0.000000  1.000000  0.000000  0.000000 ICntrl=     500 IOpCl=  0
         NMat0=    1 NMatS0=    1 NMatT0=    0 NMatD0=    1 NMtDS0=    0 NMtDT0=    0
         I1Cent=           4 NGrid=           0.
 Symmetry not used in FoFCou.
 Requested convergence on RMS density matrix=1.00D-08 within 128 cycles.
 Requested convergence on MAX density matrix=1.00D-06.
 Requested convergence on             energy=1.00D-06.
 No special actions if energy rises.
 Keep R1 ints in memory in canonical form, NReq=38698576.
 SCF Done:  E(RB3LYP) =  -305.293037851     A.U. after   10 cycles
             Convg  =    0.3027D-08             -V/T =  2.0090
 Range of M.O.s used for correlation:     1   131
 NBasis=   131 NAE=    21 NBE=    21 NFC=     0 NFV=     0
 NROrb=    131 NOA=    21 NOB=    21 NVA=   110 NVB=   110

 **** Warning!!: The largest alpha MO coefficient is  0.14725773D+02

 Symmetrizing basis deriv contribution to polar:
 IMax=3 JMax=2 DiffMx= 0.00D+00
 Calling FoFJK, ICntrl=      2147 FMM=F ISym2X=0 I1Cent= 0 IOpClX= 0 NMat=1 NMatS=1 NMatT=0.
 -------------------------------------------------------------------
 Center     Atomic                   Forces (Hartrees/Bohr)
 Number     Number              X              Y              Z
 -------------------------------------------------------------------
      1        6          -0.000241726   -0.000076743    0.000057667
      2        1          -0.000098967   -0.000041761   -0.000207298
      3        1          -0.000138926    0.000070572    0.000147158
      4        1           0.000167314   -0.000049965    0.000051670
      5        6          -0.000254858   -0.000214849    0.000311856
      6        1           0.000061095    0.000179340    0.000004883
      7        8          -0.000146604   -0.000119116   -0.000270894
      8        1           0.000293620    0.000454857    0.000257215
      9        8           0.000573464   -0.000024340   -0.000004198
     10        8          -0.000254447   -0.000177624   -0.000284460
     11        1           0.000040034   -0.000000370   -0.000063598
 -------------------------------------------------------------------
 Cartesian Forces:  Max     0.000573464 RMS     0.000207890
 IRC-IRC-IRC-IRC-IRC-IRC-IRC-IRC-IRC-IRC-IRC-IRC-IRC-IRC-IRC-IRC-IRC-IRC
 Error in corrector energy =          -0.0000010261
 Magnitude of corrector gradient =     0.0010305713
 Magnitude of analytic gradient =      0.0011942367
 Magnitude of difference =             0.0004350485
 Angle between gradients (degrees)=   20.9343
 Pt  1 Step number   3 out of a maximum of  20
 CORRECTOR INTEGRATION CONVERGENCE:
   Recorrection delta-x convergence threshold:    0.010000
   Delta-x Convergence NOT Met
 IRC-IRC-IRC-IRC-IRC-IRC-IRC-IRC-IRC-IRC-IRC-IRC-IRC-IRC-IRC-IRC-IRC-IRC
                          Input orientation:
 ---------------------------------------------------------------------
 Center     Atomic      Atomic             Coordinates (Angstroms)
 Number     Number       Type             X           Y           Z
 ---------------------------------------------------------------------
      1          6           0       -1.552650    1.479763   -0.034910
      2          1           0       -2.447336    2.069426    0.187107
      3          1           0       -0.703221    1.845808    0.551771
      4          1           0       -1.327939    1.537164   -1.106121
      5          6           0        2.093947    0.276583   -0.263607
      6          1           0        1.518529    0.432754   -1.211002
      7          8           0       -0.721119   -0.667650    0.133191
      8          1           0       -0.563153   -0.980759    1.039384
      9          8           0       -1.908748    0.154258    0.343186
     10          8           0        2.323039   -1.013958   -0.163429
     11          1           0        1.947726   -1.576676   -0.873503
 ---------------------------------------------------------------------
                    Distance matrix (angstroms):
                    1          2          3          4          5
     1  C    0.000000
     2  H    1.094284   0.000000
     3  H    1.095314   1.795807   0.000000
     4  H    1.096030   1.791310   1.798372   0.000000
     5  C    3.846767   4.903130   3.309299   3.742753   0.000000
     6  H    3.451312   4.512370   3.168637   3.055012   1.119398
     7  O    2.308914   3.236404   2.548137   2.601025   2.995601
     8  H    2.861361   3.685126   2.871736   3.395295   3.215413
     9  O    1.423632   1.995571   2.087617   2.085728   4.050275
    10  O    4.610437   5.690923   4.224692   4.552640   1.314540
    11  H    4.722043   5.808229   4.557667   4.525493   1.956508
                    6          7          8          9         10
     6  H    0.000000
     7  O    2.834390   0.000000
     8  H    3.375746   0.971688   0.000000
     9  O    3.773498   1.459484   1.893035   0.000000
    10  O    1.958985   3.078118   3.126974   4.419209   0.000000
    11  H    2.082289   2.993743   3.212284   4.398733   0.980671
                   11
    11  H    0.000000
 Symmetry turned off by external request.
 Stoichiometry    C2H6O3
 Framework group  C1[X(C2H6O3)]
 Deg. of freedom    27
 Full point group                 C1      NOp   1
 Rotational constants (GHZ):     10.1723013      1.8252775      1.5867471
 Standard basis: 6-31++G(d,p) (6D, 7F)
 Integral buffers will be    131072 words long.
 Raffenetti 2 integral format.
 Two-electron integral symmetry is turned off.
   131 basis functions,   208 primitive gaussians,   131 cartesian basis functions
    21 alpha electrons       21 beta electrons
       nuclear repulsion energy       170.1444592438 Hartrees.
 NAtoms=   11 NActive=   11 NUniq=   11 SFac= 7.50D-01 NAtFMM=   80 NAOKFM=F Big=F
 One-electron integrals computed using PRISM.
 NBasis=   131 RedAO= T  NBF=   131
 NBsUse=   131 1.00D-06 NBFU=   131
 Initial guess read from the read-write file.
 B after Tr=     0.000000    0.000000    0.000000
         Rot=    1.000000    0.000000    0.000000    0.000000 Ang=   0.00 deg.
 Harris functional with IExCor=  402 diagonalized for initial guess.
 ExpMin= 3.60D-02 ExpMax= 5.48D+03 ExpMxC= 8.25D+02 IAcc=3 IRadAn=         0 AccDes= 0.00D+00
 HarFok:  IExCor=  402 AccDes= 0.00D+00 IRadAn=         0 IDoV= 1
 ScaDFX=  1.000000  1.000000  1.000000  1.000000
 FoFCou: FMM=F IPFlag=           0 FMFlag=      100000 FMFlg1=           0
         NFxFlg=           0 DoJE=T BraDBF=F KetDBF=T FulRan=T
         Omega=  0.000000  0.000000  1.000000  0.000000  0.000000 ICntrl=     500 IOpCl=  0
         NMat0=    1 NMatS0=    1 NMatT0=    0 NMatD0=    1 NMtDS0=    0 NMtDT0=    0
         I1Cent=           4 NGrid=           0.
 Symmetry not used in FoFCou.
 Requested convergence on RMS density matrix=1.00D-08 within 128 cycles.
 Requested convergence on MAX density matrix=1.00D-06.
 Requested convergence on             energy=1.00D-06.
 No special actions if energy rises.
 Keep R1 ints in memory in canonical form, NReq=38698576.
 SCF Done:  E(RB3LYP) =  -305.293025646     A.U. after   10 cycles
             Convg  =    0.2363D-08             -V/T =  2.0090
 Range of M.O.s used for correlation:     1   131
 NBasis=   131 NAE=    21 NBE=    21 NFC=     0 NFV=     0
 NROrb=    131 NOA=    21 NOB=    21 NVA=   110 NVB=   110

 **** Warning!!: The largest alpha MO coefficient is  0.14725952D+02

 Symmetrizing basis deriv contribution to polar:
 IMax=3 JMax=2 DiffMx= 0.00D+00
 Calling FoFJK, ICntrl=      2147 FMM=F ISym2X=0 I1Cent= 0 IOpClX= 0 NMat=1 NMatS=1 NMatT=0.
 -------------------------------------------------------------------
 Center     Atomic                   Forces (Hartrees/Bohr)
 Number     Number              X              Y              Z
 -------------------------------------------------------------------
      1        6          -0.000249934   -0.000084280    0.000066539
      2        1          -0.000101549   -0.000045802   -0.000214190
      3        1          -0.000145332    0.000074193    0.000152838
      4        1           0.000174423   -0.000051147    0.000055294
      5        6          -0.000244155   -0.000217576    0.000311549
      6        1           0.000059957    0.000182779    0.000009782
      7        8          -0.000183534   -0.000164616   -0.000221601
      8        1           0.000294426    0.000492138    0.000202074
      9        8           0.000612840   -0.000013410   -0.000011368
     10        8          -0.000252608   -0.000173969   -0.000295641
     11        1           0.000035466    0.000001688   -0.000055277
 -------------------------------------------------------------------
 Cartesian Forces:  Max     0.000612840 RMS     0.000213255
 IRC-IRC-IRC-IRC-IRC-IRC-IRC-IRC-IRC-IRC-IRC-IRC-IRC-IRC-IRC-IRC-IRC-IRC
 Error in corrector energy =           0.0000000211
 Magnitude of corrector gradient =     0.0010914638
 Magnitude of analytic gradient =      0.0012250581
 Magnitude of difference =             0.0003630936
 Angle between gradients (degrees)=   16.7891
 Pt  1 Step number   4 out of a maximum of  20
 CORRECTOR INTEGRATION CONVERGENCE:
   Recorrection delta-x convergence threshold:    0.010000
   Delta-x Convergence NOT Met
 IRC-IRC-IRC-IRC-IRC-IRC-IRC-IRC-IRC-IRC-IRC-IRC-IRC-IRC-IRC-IRC-IRC-IRC
                          Input orientation:
 ---------------------------------------------------------------------
 Center     Atomic      Atomic             Coordinates (Angstroms)
 Number     Number       Type             X           Y           Z
 ---------------------------------------------------------------------
      1          6           0       -1.552556    1.479674   -0.034910
      2          1           0       -2.446677    2.069801    0.188141
      3          1           0       -0.702426    1.844858    0.551264
      4          1           0       -1.328704    1.537442   -1.106292
      5          6           0        2.095357    0.276943   -0.264050
      6          1           0        1.517563    0.433003   -1.210025
      7          8           0       -0.721149   -0.667622    0.133655
      8          1           0       -0.567137   -0.985062    1.039028
      9          8           0       -1.909177    0.154188    0.342901
     10          8           0        2.322831   -1.013852   -0.163428
     11          1           0        1.944732   -1.576476   -0.872103
 ---------------------------------------------------------------------
                    Distance matrix (angstroms):
                    1          2          3          4          5
     1  C    0.000000
     2  H    1.094282   0.000000
     3  H    1.095299   1.795792   0.000000
     4  H    1.096042   1.791320   1.798395   0.000000
     5  C    3.847900   4.903967   3.309182   3.744652   0.000000
     6  H    3.449934   4.511006   3.166043   3.054796   1.119406
     7  O    2.308795   3.236341   2.547019   2.601711   2.997178
     8  H    2.863444   3.686308   2.874833   3.397853   3.221730
     9  O    1.423669   1.995603   2.087589   2.085786   4.052129
    10  O    4.610077   5.690406   4.223173   4.553218   1.314542
    11  H    4.719318   5.805508   4.554004   4.524015   1.956420
                    6          7          8          9         10
     6  H    0.000000
     7  O    2.833493   0.000000
     8  H    3.378627   0.971693   0.000000
     9  O    3.772514   1.459646   1.893027   0.000000
    10  O    1.958880   3.077977   3.130278   4.419341   0.000000
    11  H    2.081987   2.990733   3.211180   4.395912   0.980676
                   11
    11  H    0.000000
 Symmetry turned off by external request.
 Stoichiometry    C2H6O3
 Framework group  C1[X(C2H6O3)]
 Deg. of freedom    27
 Full point group                 C1      NOp   1
 Rotational constants (GHZ):     10.1671651      1.8250713      1.5863865
 Standard basis: 6-31++G(d,p) (6D, 7F)
 Integral buffers will be    131072 words long.
 Raffenetti 2 integral format.
 Two-electron integral symmetry is turned off.
   131 basis functions,   208 primitive gaussians,   131 cartesian basis functions
    21 alpha electrons       21 beta electrons
       nuclear repulsion energy       170.1334170161 Hartrees.
 NAtoms=   11 NActive=   11 NUniq=   11 SFac= 7.50D-01 NAtFMM=   80 NAOKFM=F Big=F
 One-electron integrals computed using PRISM.
 NBasis=   131 RedAO= T  NBF=   131
 NBsUse=   131 1.00D-06 NBFU=   131
 Initial guess read from the read-write file.
 B after Tr=     0.000000    0.000000    0.000000
         Rot=    1.000000    0.000000    0.000000    0.000000 Ang=   0.00 deg.
 Harris functional with IExCor=  402 diagonalized for initial guess.
 ExpMin= 3.60D-02 ExpMax= 5.48D+03 ExpMxC= 8.25D+02 IAcc=3 IRadAn=         0 AccDes= 0.00D+00
 HarFok:  IExCor=  402 AccDes= 0.00D+00 IRadAn=         0 IDoV= 1
 ScaDFX=  1.000000  1.000000  1.000000  1.000000
 FoFCou: FMM=F IPFlag=           0 FMFlag=      100000 FMFlg1=           0
         NFxFlg=           0 DoJE=T BraDBF=F KetDBF=T FulRan=T
         Omega=  0.000000  0.000000  1.000000  0.000000  0.000000 ICntrl=     500 IOpCl=  0
         NMat0=    1 NMatS0=    1 NMatT0=    0 NMatD0=    1 NMtDS0=    0 NMtDT0=    0
         I1Cent=           4 NGrid=           0.
 Symmetry not used in FoFCou.
 Requested convergence on RMS density matrix=1.00D-08 within 128 cycles.
 Requested convergence on MAX density matrix=1.00D-06.
 Requested convergence on             energy=1.00D-06.
 No special actions if energy rises.
 Keep R1 ints in memory in canonical form, NReq=38698576.
 SCF Done:  E(RB3LYP) =  -305.293015764     A.U. after    9 cycles
             Convg  =    0.9157D-08             -V/T =  2.0091
 Range of M.O.s used for correlation:     1   131
 NBasis=   131 NAE=    21 NBE=    21 NFC=     0 NFV=     0
 NROrb=    131 NOA=    21 NOB=    21 NVA=   110 NVB=   110

 **** Warning!!: The largest alpha MO coefficient is  0.14725493D+02

 Symmetrizing basis deriv contribution to polar:
 IMax=3 JMax=2 DiffMx= 0.00D+00
 Calling FoFJK, ICntrl=      2147 FMM=F ISym2X=0 I1Cent= 0 IOpClX= 0 NMat=1 NMatS=1 NMatT=0.
 -------------------------------------------------------------------
 Center     Atomic                   Forces (Hartrees/Bohr)
 Number     Number              X              Y              Z
 -------------------------------------------------------------------
      1        6          -0.000268354   -0.000106935    0.000081045
      2        1          -0.000103919   -0.000047014   -0.000220975
      3        1          -0.000149988    0.000072920    0.000158190
      4        1           0.000179745   -0.000054275    0.000058350
      5        6          -0.000239129   -0.000230780    0.000304437
      6        1           0.000059341    0.000196717    0.000015316
      7        8          -0.000226518   -0.000185300   -0.000218711
      8        1           0.000291167    0.000517594    0.000190952
      9        8           0.000673739    0.000004924   -0.000020510
     10        8          -0.000249656   -0.000167837   -0.000302817
     11        1           0.000033572   -0.000000014   -0.000045278
 -------------------------------------------------------------------
 Cartesian Forces:  Max     0.000673739 RMS     0.000223695
 IRC-IRC-IRC-IRC-IRC-IRC-IRC-IRC-IRC-IRC-IRC-IRC-IRC-IRC-IRC-IRC-IRC-IRC
 Error in corrector energy =           0.0000000480
 Magnitude of corrector gradient =     0.0011492923
 Magnitude of analytic gradient =      0.0012850282
 Magnitude of difference =             0.0003452148
 Angle between gradients (degrees)=   15.0077
 Pt  1 Step number   5 out of a maximum of  20
 CORRECTOR INTEGRATION CONVERGENCE:
   Recorrection delta-x convergence threshold:    0.010000
   Delta-x Convergence NOT Met
 IRC-IRC-IRC-IRC-IRC-IRC-IRC-IRC-IRC-IRC-IRC-IRC-IRC-IRC-IRC-IRC-IRC-IRC
                          Input orientation:
 ---------------------------------------------------------------------
 Center     Atomic      Atomic             Coordinates (Angstroms)
 Number     Number       Type             X           Y           Z
 ---------------------------------------------------------------------
      1          6           0       -1.552478    1.479618   -0.034918
      2          1           0       -2.446178    2.070079    0.188929
      3          1           0       -0.701824    1.844163    0.550871
      4          1           0       -1.329284    1.537666   -1.106430
      5          6           0        2.096412    0.277217   -0.264372
      6          1           0        1.516844    0.433124   -1.209294
      7          8           0       -0.721145   -0.667591    0.134014
      8          1           0       -0.570174   -0.988479    1.038687
      9          8           0       -1.909521    0.154126    0.342689
     10          8           0        2.322665   -1.013779   -0.163431
     11          1           0        1.942478   -1.576278   -0.871088
 ---------------------------------------------------------------------
                    Distance matrix (angstroms):
                    1          2          3          4          5
     1  C    0.000000
     2  H    1.094282   0.000000
     3  H    1.095287   1.795776   0.000000
     4  H    1.096049   1.791332   1.798415   0.000000
     5  C    3.848742   4.904586   3.309089   3.746090   0.000000
     6  H    3.448919   4.510010   3.164127   3.054675   1.119412
     7  O    2.308714   3.236293   2.546184   2.602248   2.998334
     8  H    2.865144   3.687310   2.877352   3.399880   3.226551
     9  O    1.423726   1.995625   2.087605   2.085858   4.053539
    10  O    4.609802   5.690009   4.222036   4.553663   1.314553
    11  H    4.717245   5.803436   4.551233   4.522882   1.956334
                    6          7          8          9         10
     6  H    0.000000
     7  O    2.832781   0.000000
     8  H    3.380831   0.971697   0.000000
     9  O    3.771799   1.459795   1.893095   0.000000
    10  O    1.958751   3.077841   3.132770   4.419452   0.000000
    11  H    2.081645   2.988450   3.210323   4.393797   0.980676
                   11
    11  H    0.000000
 Symmetry turned off by external request.
 Stoichiometry    C2H6O3
 Framework group  C1[X(C2H6O3)]
 Deg. of freedom    27
 Full point group                 C1      NOp   1
 Rotational constants (GHZ):     10.1632147      1.8249181      1.5861136
 Standard basis: 6-31++G(d,p) (6D, 7F)
 Integral buffers will be    131072 words long.
 Raffenetti 2 integral format.
 Two-electron integral symmetry is turned off.
   131 basis functions,   208 primitive gaussians,   131 cartesian basis functions
    21 alpha electrons       21 beta electrons
       nuclear repulsion energy       170.1242023664 Hartrees.
 NAtoms=   11 NActive=   11 NUniq=   11 SFac= 7.50D-01 NAtFMM=   80 NAOKFM=F Big=F
 One-electron integrals computed using PRISM.
 NBasis=   131 RedAO= T  NBF=   131
 NBsUse=   131 1.00D-06 NBFU=   131
 Initial guess read from the read-write file.
 B after Tr=     0.000000    0.000000    0.000000
         Rot=    1.000000    0.000000    0.000000    0.000000 Ang=   0.00 deg.
 Harris functional with IExCor=  402 diagonalized for initial guess.
 ExpMin= 3.60D-02 ExpMax= 5.48D+03 ExpMxC= 8.25D+02 IAcc=3 IRadAn=         0 AccDes= 0.00D+00
 HarFok:  IExCor=  402 AccDes= 0.00D+00 IRadAn=         0 IDoV= 1
 ScaDFX=  1.000000  1.000000  1.000000  1.000000
 FoFCou: FMM=F IPFlag=           0 FMFlag=      100000 FMFlg1=           0
         NFxFlg=           0 DoJE=T BraDBF=F KetDBF=T FulRan=T
         Omega=  0.000000  0.000000  1.000000  0.000000  0.000000 ICntrl=     500 IOpCl=  0
         NMat0=    1 NMatS0=    1 NMatT0=    0 NMatD0=    1 NMtDS0=    0 NMtDT0=    0
         I1Cent=           4 NGrid=           0.
 Symmetry not used in FoFCou.
 Requested convergence on RMS density matrix=1.00D-08 within 128 cycles.
 Requested convergence on MAX density matrix=1.00D-06.
 Requested convergence on             energy=1.00D-06.
 No special actions if energy rises.
 Keep R1 ints in memory in canonical form, NReq=38698576.
 SCF Done:  E(RB3LYP) =  -305.293007896     A.U. after    9 cycles
             Convg  =    0.7227D-08             -V/T =  2.0091
 Range of M.O.s used for correlation:     1   131
 NBasis=   131 NAE=    21 NBE=    21 NFC=     0 NFV=     0
 NROrb=    131 NOA=    21 NOB=    21 NVA=   110 NVB=   110

 **** Warning!!: The largest alpha MO coefficient is  0.14725045D+02

 Symmetrizing basis deriv contribution to polar:
 IMax=3 JMax=2 DiffMx= 0.00D+00
 Calling FoFJK, ICntrl=      2147 FMM=F ISym2X=0 I1Cent= 0 IOpClX= 0 NMat=1 NMatS=1 NMatT=0.
 -------------------------------------------------------------------
 Center     Atomic                   Forces (Hartrees/Bohr)
 Number     Number              X              Y              Z
 -------------------------------------------------------------------
      1        6          -0.000292775   -0.000135402    0.000097866
      2        1          -0.000105297   -0.000046207   -0.000227612
      3        1          -0.000153261    0.000068478    0.000163011
      4        1           0.000183503   -0.000058385    0.000061325
      5        6          -0.000238271   -0.000251041    0.000293066
      6        1           0.000058529    0.000217553    0.000020567
      7        8          -0.000265698   -0.000198184   -0.000224219
      8        1           0.000281468    0.000542321    0.000186455
      9        8           0.000743696    0.000025279   -0.000029631
     10        8          -0.000244572   -0.000160169   -0.000305253
     11        1           0.000032679   -0.000004243   -0.000035575
 -------------------------------------------------------------------
 Cartesian Forces:  Max     0.000743696 RMS     0.000235807
 IRC-IRC-IRC-IRC-IRC-IRC-IRC-IRC-IRC-IRC-IRC-IRC-IRC-IRC-IRC-IRC-IRC-IRC
 Error in corrector energy =           0.0000000453
 Magnitude of corrector gradient =     0.0012150757
 Magnitude of analytic gradient =      0.0013546075
 Magnitude of difference =             0.0003283297
 Angle between gradients (degrees)=   13.3029
 Pt  1 Step number   6 out of a maximum of  20
 CORRECTOR INTEGRATION CONVERGENCE:
   Recorrection delta-x convergence threshold:    0.010000
   Delta-x Convergence NOT Met
 IRC-IRC-IRC-IRC-IRC-IRC-IRC-IRC-IRC-IRC-IRC-IRC-IRC-IRC-IRC-IRC-IRC-IRC
                          Input orientation:
 ---------------------------------------------------------------------
 Center     Atomic      Atomic             Coordinates (Angstroms)
 Number     Number       Type             X           Y           Z
 ---------------------------------------------------------------------
      1          6           0       -1.552411    1.479587   -0.034931
      2          1           0       -2.445800    2.070281    0.189539
      3          1           0       -0.701366    1.843663    0.550562
      4          1           0       -1.329728    1.537850   -1.106543
      5          6           0        2.097207    0.277429   -0.264607
      6          1           0        1.516314    0.433133   -1.208754
      7          8           0       -0.721128   -0.667564    0.134293
      8          1           0       -0.572426   -0.991140    1.038380
      9          8           0       -1.909799    0.154073    0.342531
     10          8           0        2.322534   -1.013729   -0.163438
     11          1           0        1.940787   -1.576089   -0.870355
 ---------------------------------------------------------------------
                    Distance matrix (angstroms):
                    1          2          3          4          5
     1  C    0.000000
     2  H    1.094281   0.000000
     3  H    1.095277   1.795757   0.000000
     4  H    1.096054   1.791348   1.798431   0.000000
     5  C    3.849369   4.905046   3.309018   3.747185   0.000000
     6  H    3.448188   4.509305   3.162735   3.054636   1.119416
     7  O    2.308663   3.236255   2.545571   2.602675   2.999190
     8  H    2.866506   3.688138   2.879357   3.401468   3.230167
     9  O    1.423794   1.995635   2.087655   2.085938   4.054618
    10  O    4.609591   5.689703   4.221191   4.554010   1.314570
    11  H    4.715668   5.801857   4.549141   4.522020   1.956253
                    6          7          8          9         10
     6  H    0.000000
     7  O    2.832217   0.000000
     8  H    3.382454   0.971693   0.000000
     9  O    3.771288   1.459928   1.893221   0.000000
    10  O    1.958592   3.077718   3.134592   4.419548   0.000000
    11  H    2.081265   2.986725   3.209622   4.392217   0.980670
                   11
    11  H    0.000000
 Symmetry turned off by external request.
 Stoichiometry    C2H6O3
 Framework group  C1[X(C2H6O3)]
 Deg. of freedom    27
 Full point group                 C1      NOp   1
 Rotational constants (GHZ):     10.1601421      1.8248015      1.5859047
 Standard basis: 6-31++G(d,p) (6D, 7F)
 Integral buffers will be    131072 words long.
 Raffenetti 2 integral format.
 Two-electron integral symmetry is turned off.
   131 basis functions,   208 primitive gaussians,   131 cartesian basis functions
    21 alpha electrons       21 beta electrons
       nuclear repulsion energy       170.1164671160 Hartrees.
 NAtoms=   11 NActive=   11 NUniq=   11 SFac= 7.50D-01 NAtFMM=   80 NAOKFM=F Big=F
 One-electron integrals computed using PRISM.
 NBasis=   131 RedAO= T  NBF=   131
 NBsUse=   131 1.00D-06 NBFU=   131
 Initial guess read from the read-write file.
 B after Tr=     0.000000    0.000000    0.000000
         Rot=    1.000000    0.000000    0.000000    0.000000 Ang=   0.00 deg.
 Harris functional with IExCor=  402 diagonalized for initial guess.
 ExpMin= 3.60D-02 ExpMax= 5.48D+03 ExpMxC= 8.25D+02 IAcc=3 IRadAn=         0 AccDes= 0.00D+00
 HarFok:  IExCor=  402 AccDes= 0.00D+00 IRadAn=         0 IDoV= 1
 ScaDFX=  1.000000  1.000000  1.000000  1.000000
 FoFCou: FMM=F IPFlag=           0 FMFlag=      100000 FMFlg1=           0
         NFxFlg=           0 DoJE=T BraDBF=F KetDBF=T FulRan=T
         Omega=  0.000000  0.000000  1.000000  0.000000  0.000000 ICntrl=     500 IOpCl=  0
         NMat0=    1 NMatS0=    1 NMatT0=    0 NMatD0=    1 NMtDS0=    0 NMtDT0=    0
         I1Cent=           4 NGrid=           0.
 Symmetry not used in FoFCou.
 Requested convergence on RMS density matrix=1.00D-08 within 128 cycles.
 Requested convergence on MAX density matrix=1.00D-06.
 Requested convergence on             energy=1.00D-06.
 No special actions if energy rises.
 Keep R1 ints in memory in canonical form, NReq=38698576.
 SCF Done:  E(RB3LYP) =  -305.293001691     A.U. after    9 cycles
             Convg  =    0.5598D-08             -V/T =  2.0091
 Range of M.O.s used for correlation:     1   131
 NBasis=   131 NAE=    21 NBE=    21 NFC=     0 NFV=     0
 NROrb=    131 NOA=    21 NOB=    21 NVA=   110 NVB=   110

 **** Warning!!: The largest alpha MO coefficient is  0.14724770D+02

 Symmetrizing basis deriv contribution to polar:
 IMax=3 JMax=2 DiffMx= 0.00D+00
 Calling FoFJK, ICntrl=      2147 FMM=F ISym2X=0 I1Cent= 0 IOpClX= 0 NMat=1 NMatS=1 NMatT=0.
 -------------------------------------------------------------------
 Center     Atomic                   Forces (Hartrees/Bohr)
 Number     Number              X              Y              Z
 -------------------------------------------------------------------
      1        6          -0.000321221   -0.000166323    0.000116070
      2        1          -0.000105980   -0.000043523   -0.000234481
      3        1          -0.000155579    0.000061271    0.000167571
      4        1           0.000185923   -0.000063118    0.000063899
      5        6          -0.000241840   -0.000278311    0.000276547
      6        1           0.000057505    0.000245592    0.000025383
      7        8          -0.000300897   -0.000203290   -0.000242960
      8        1           0.000266882    0.000564406    0.000193175
      9        8           0.000819205    0.000045403   -0.000036991
     10        8          -0.000235311   -0.000151034   -0.000299945
     11        1           0.000031313   -0.000011073   -0.000028268
 -------------------------------------------------------------------
 Cartesian Forces:  Max     0.000819205 RMS     0.000249263
 IRC-IRC-IRC-IRC-IRC-IRC-IRC-IRC-IRC-IRC-IRC-IRC-IRC-IRC-IRC-IRC-IRC-IRC
 Error in corrector energy =           0.0000000275
 Magnitude of corrector gradient =     0.0012904596
 Magnitude of analytic gradient =      0.0014319070
 Magnitude of difference =             0.0003057037
 Angle between gradients (degrees)=   11.4420
 Pt  1 Step number   7 out of a maximum of  20
 CORRECTOR INTEGRATION CONVERGENCE:
   Recorrection delta-x convergence threshold:    0.010000
   Delta-x Convergence Met
 Point Number:   1          Path Number:   1
   CHANGE IN THE REACTION COORDINATE =    0.02347
   NET REACTION COORDINATE UP TO THIS POINT =    0.02347
  # OF POINTS ALONG THE PATH =   1
  # OF STEPS =   7

 Calculating another point on the path.
 IRC-IRC-IRC-IRC-IRC-IRC-IRC-IRC-IRC-IRC-IRC-IRC-IRC-IRC-IRC-IRC-IRC-IRC
                          Input orientation:
 ---------------------------------------------------------------------
 Center     Atomic      Atomic             Coordinates (Angstroms)
 Number     Number       Type             X           Y           Z
 ---------------------------------------------------------------------
      1          6           0       -1.554900    1.478354   -0.033849
      2          1           0       -2.456141    2.065961    0.167429
      3          1           0       -0.716758    1.850068    0.566593
      4          1           0       -1.311342    1.532146   -1.100990
      5          6           0        2.095865    0.275485   -0.262329
      6          1           0        1.523697    0.454038   -1.208102
      7          8           0       -0.722998   -0.668827    0.133247
      8          1           0       -0.543598   -0.934238    1.054291
      9          8           0       -1.905492    0.154217    0.342129
     10          8           0        2.320992   -1.014681   -0.165240
     11          1           0        1.945481   -1.578012   -0.875357
 ---------------------------------------------------------------------
                    Distance matrix (angstroms):
                    1          2          3          4          5
     1  C    0.000000
     2  H    1.094546   0.000000
     3  H    1.095985   1.797608   0.000000
     4  H    1.095903   1.790087   1.798732   0.000000
     5  C    3.850608   4.910321   3.328253   3.727145   0.000000
     6  H    3.450486   4.508825   3.180894   3.035002   1.119707
     7  O    2.308759   3.237904   2.555907   2.591095   2.999032
     8  H    2.833264   3.666816   2.831995   3.364182   3.188053
     9  O    1.420427   1.997123   2.083119   2.081897   4.048571
    10  O    4.610318   5.694035   4.239139   4.533852   1.313255
    11  H    4.722518   5.808634   4.573672   4.508979   1.958028
                    6          7          8          9         10
     6  H    0.000000
     7  O    2.847399   0.000000
     8  H    3.364438   0.975166   0.000000
     9  O    3.775241   1.455790   1.883259   0.000000
    10  O    1.969867   3.078081   3.114419   4.414399   0.000000
    11  H    2.101867   2.994108   3.214577   4.394643   0.981130
                   11
    11  H    0.000000
 Symmetry turned off by external request.
 Stoichiometry    C2H6O3
 Framework group  C1[X(C2H6O3)]
 Deg. of freedom    27
 Full point group                 C1      NOp   1
 Rotational constants (GHZ):     10.1891860      1.8258261      1.5878895
 Standard basis: 6-31++G(d,p) (6D, 7F)
 Integral buffers will be    131072 words long.
 Raffenetti 2 integral format.
 Two-electron integral symmetry is turned off.
   131 basis functions,   208 primitive gaussians,   131 cartesian basis functions
    21 alpha electrons       21 beta electrons
       nuclear repulsion energy       170.2637166378 Hartrees.
 NAtoms=   11 NActive=   11 NUniq=   11 SFac= 7.50D-01 NAtFMM=   80 NAOKFM=F Big=F
 One-electron integrals computed using PRISM.
 NBasis=   131 RedAO= T  NBF=   131
 NBsUse=   131 1.00D-06 NBFU=   131
 Initial guess read from the read-write file.
 B after Tr=     0.000000    0.000000    0.000000
         Rot=    1.000000    0.000000    0.000000    0.000000 Ang=   0.00 deg.
 Harris functional with IExCor=  402 diagonalized for initial guess.
 ExpMin= 3.60D-02 ExpMax= 5.48D+03 ExpMxC= 8.25D+02 IAcc=3 IRadAn=         0 AccDes= 0.00D+00
 HarFok:  IExCor=  402 AccDes= 0.00D+00 IRadAn=         0 IDoV= 1
 ScaDFX=  1.000000  1.000000  1.000000  1.000000
 FoFCou: FMM=F IPFlag=           0 FMFlag=      100000 FMFlg1=           0
         NFxFlg=           0 DoJE=T BraDBF=F KetDBF=T FulRan=T
         Omega=  0.000000  0.000000  1.000000  0.000000  0.000000 ICntrl=     500 IOpCl=  0
         NMat0=    1 NMatS0=    1 NMatT0=    0 NMatD0=    1 NMtDS0=    0 NMtDT0=    0
         I1Cent=           4 NGrid=           0.
 Symmetry not used in FoFCou.
 Requested convergence on RMS density matrix=1.00D-08 within 128 cycles.
 Requested convergence on MAX density matrix=1.00D-06.
 Requested convergence on             energy=1.00D-06.
 No special actions if energy rises.
 Keep R1 ints in memory in canonical form, NReq=38698576.
 SCF Done:  E(RB3LYP) =  -305.293019232     A.U. after   10 cycles
             Convg  =    0.9783D-08             -V/T =  2.0090
 Range of M.O.s used for correlation:     1   131
 NBasis=   131 NAE=    21 NBE=    21 NFC=     0 NFV=     0
 NROrb=    131 NOA=    21 NOB=    21 NVA=   110 NVB=   110

 **** Warning!!: The largest alpha MO coefficient is  0.14761067D+02

 Symmetrizing basis deriv contribution to polar:
 IMax=3 JMax=2 DiffMx= 0.00D+00
 Calling FoFJK, ICntrl=      2147 FMM=F ISym2X=0 I1Cent= 0 IOpClX= 0 NMat=1 NMatS=1 NMatT=0.
 -------------------------------------------------------------------
 Center     Atomic                   Forces (Hartrees/Bohr)
 Number     Number              X              Y              Z
 -------------------------------------------------------------------
      1        6           0.001113604    0.001231335   -0.000500591
      2        1           0.000030774   -0.000416350    0.000136929
      3        1          -0.000339736    0.000577197   -0.000209866
      4        1           0.000270139    0.000204450   -0.000073495
      5        6           0.000450521    0.001704795    0.001815640
      6        1           0.000221950   -0.001969162   -0.000138334
      7        8           0.001210390   -0.000974725    0.004348672
      8        1           0.001028034    0.000182609   -0.003429881
      9        8          -0.002883280   -0.000559909   -0.000212415
     10        8          -0.001095101   -0.000137484   -0.001398992
     11        1          -0.000007295    0.000157243   -0.000337668
 -------------------------------------------------------------------
 Cartesian Forces:  Max     0.004348672 RMS     0.001352114
 IRC-IRC-IRC-IRC-IRC-IRC-IRC-IRC-IRC-IRC-IRC-IRC-IRC-IRC-IRC-IRC-IRC-IRC
 Pt  2 Step number   1 out of a maximum of  20
 CORRECTOR INTEGRATION CONVERGENCE:
   Recorrection delta-x convergence threshold:    0.010000
   Delta-x Convergence NOT Met
 IRC-IRC-IRC-IRC-IRC-IRC-IRC-IRC-IRC-IRC-IRC-IRC-IRC-IRC-IRC-IRC-IRC-IRC
                          Input orientation:
 ---------------------------------------------------------------------
 Center     Atomic      Atomic             Coordinates (Angstroms)
 Number     Number       Type             X           Y           Z
 ---------------------------------------------------------------------
      1          6           0       -1.554131    1.479400   -0.034517
      2          1           0       -2.459068    2.062767    0.162352
      3          1           0       -0.721760    1.856079    0.570509
      4          1           0       -1.304110    1.532814   -1.100363
      5          6           0        2.096979    0.276883   -0.260185
      6          1           0        1.520623    0.444432   -1.204907
      7          8           0       -0.720808   -0.668004    0.134980
      8          1           0       -0.541365   -0.948467    1.047919
      9          8           0       -1.907674    0.153299    0.341824
     10          8           0        2.319046   -1.015170   -0.166639
     11          1           0        1.936153   -1.573212   -0.876677
 ---------------------------------------------------------------------
                    Distance matrix (angstroms):
                    1          2          3          4          5
     1  C    0.000000
     2  H    1.094525   0.000000
     3  H    1.095804   1.796539   0.000000
     4  H    1.096079   1.791431   1.798734   0.000000
     5  C    3.850660   4.911771   3.336047   3.721649   0.000000
     6  H    3.448925   4.508475   3.189535   3.028964   1.119267
     7  O    2.309654   3.237191   2.561383   2.590350   2.998148
     8  H    2.844626   3.678226   2.850604   3.369518   3.189589
     9  O    1.423084   1.995574   2.087618   2.085007   4.051535
    10  O    4.608886   5.693181   4.246641   4.526735   1.314331
    11  H    4.712723   5.798094   4.573717   4.494078   1.956727
                    6          7          8          9         10
     6  H    0.000000
     7  O    2.838455   0.000000
     8  H    3.356663   0.971760   0.000000
     9  O    3.772315   1.458072   1.891893   0.000000
    10  O    1.961101   3.074444   3.108303   4.414636   0.000000
    11  H    2.085974   2.983671   3.198823   4.386410   0.980904
                   11
    11  H    0.000000
 Symmetry turned off by external request.
 Stoichiometry    C2H6O3
 Framework group  C1[X(C2H6O3)]
 Deg. of freedom    27
 Full point group                 C1      NOp   1
 Rotational constants (GHZ):     10.1781879      1.8265629      1.5880461
 Standard basis: 6-31++G(d,p) (6D, 7F)
 Integral buffers will be    131072 words long.
 Raffenetti 2 integral format.
 Two-electron integral symmetry is turned off.
   131 basis functions,   208 primitive gaussians,   131 cartesian basis functions
    21 alpha electrons       21 beta electrons
       nuclear repulsion energy       170.2073403669 Hartrees.
 NAtoms=   11 NActive=   11 NUniq=   11 SFac= 7.50D-01 NAtFMM=   80 NAOKFM=F Big=F
 One-electron integrals computed using PRISM.
 NBasis=   131 RedAO= T  NBF=   131
 NBsUse=   131 1.00D-06 NBFU=   131
 Initial guess read from the read-write file.
 B after Tr=     0.000000    0.000000    0.000000
         Rot=    1.000000    0.000000    0.000000    0.000000 Ang=   0.00 deg.
 Harris functional with IExCor=  402 diagonalized for initial guess.
 ExpMin= 3.60D-02 ExpMax= 5.48D+03 ExpMxC= 8.25D+02 IAcc=3 IRadAn=         0 AccDes= 0.00D+00
 HarFok:  IExCor=  402 AccDes= 0.00D+00 IRadAn=         0 IDoV= 1
 ScaDFX=  1.000000  1.000000  1.000000  1.000000
 FoFCou: FMM=F IPFlag=           0 FMFlag=      100000 FMFlg1=           0
         NFxFlg=           0 DoJE=T BraDBF=F KetDBF=T FulRan=T
         Omega=  0.000000  0.000000  1.000000  0.000000  0.000000 ICntrl=     500 IOpCl=  0
         NMat0=    1 NMatS0=    1 NMatT0=    0 NMatD0=    1 NMtDS0=    0 NMtDT0=    0
         I1Cent=           4 NGrid=           0.
 Symmetry not used in FoFCou.
 Requested convergence on RMS density matrix=1.00D-08 within 128 cycles.
 Requested convergence on MAX density matrix=1.00D-06.
 Requested convergence on             energy=1.00D-06.
 No special actions if energy rises.
 Keep R1 ints in memory in canonical form, NReq=38698576.
 SCF Done:  E(RB3LYP) =  -305.293098634     A.U. after   10 cycles
             Convg  =    0.7702D-08             -V/T =  2.0090
 Range of M.O.s used for correlation:     1   131
 NBasis=   131 NAE=    21 NBE=    21 NFC=     0 NFV=     0
 NROrb=    131 NOA=    21 NOB=    21 NVA=   110 NVB=   110

 **** Warning!!: The largest alpha MO coefficient is  0.14834608D+02

 Symmetrizing basis deriv contribution to polar:
 IMax=3 JMax=2 DiffMx= 0.00D+00
 Calling FoFJK, ICntrl=      2147 FMM=F ISym2X=0 I1Cent= 0 IOpClX= 0 NMat=1 NMatS=1 NMatT=0.
 -------------------------------------------------------------------
 Center     Atomic                   Forces (Hartrees/Bohr)
 Number     Number              X              Y              Z
 -------------------------------------------------------------------
      1        6           0.000029844    0.000241328   -0.000025472
      2        1           0.000070586   -0.000140269   -0.000130897
      3        1          -0.000243962    0.000099276   -0.000054974
      4        1           0.000092554    0.000004283    0.000144866
      5        6           0.000087311    0.000118439    0.000629525
      6        1           0.000005643   -0.000262377   -0.000064304
      7        8           0.000214550    0.000008754    0.000132048
      8        1           0.000432596    0.000185225    0.000133342
      9        8          -0.000190266   -0.000175533   -0.000130777
     10        8          -0.000674882   -0.000156810   -0.000546743
     11        1           0.000176026    0.000077684   -0.000086615
 -------------------------------------------------------------------
 Cartesian Forces:  Max     0.000674882 RMS     0.000240258
 IRC-IRC-IRC-IRC-IRC-IRC-IRC-IRC-IRC-IRC-IRC-IRC-IRC-IRC-IRC-IRC-IRC-IRC
 Error in corrector energy =          -0.0000093246
 Magnitude of corrector gradient =     0.0010977032
 Magnitude of analytic gradient =      0.0013801782
 Magnitude of difference =             0.0008105545
 Angle between gradients (degrees)=   35.9523
 Pt  2 Step number   2 out of a maximum of  20
 CORRECTOR INTEGRATION CONVERGENCE:
   Recorrection delta-x convergence threshold:    0.010000
   Delta-x Convergence NOT Met
 IRC-IRC-IRC-IRC-IRC-IRC-IRC-IRC-IRC-IRC-IRC-IRC-IRC-IRC-IRC-IRC-IRC-IRC
                          Input orientation:
 ---------------------------------------------------------------------
 Center     Atomic      Atomic             Coordinates (Angstroms)
 Number     Number       Type             X           Y           Z
 ---------------------------------------------------------------------
      1          6           0       -1.554143    1.479471   -0.034668
      2          1           0       -2.457292    2.063551    0.166265
      3          1           0       -0.719280    1.854892    0.566997
      4          1           0       -1.308399    1.533636   -1.101144
      5          6           0        2.096307    0.276561   -0.260749
      6          1           0        1.522933    0.442532   -1.207634
      7          8           0       -0.721012   -0.668282    0.134613
[...]
 CORRECTOR INTEGRATION CONVERGENCE:
   Recorrection delta-x convergence threshold:    0.010000
   Delta-x Convergence Met
 Recorrect forced on => Unset convergence flag.
 IRC-IRC-IRC-IRC-IRC-IRC-IRC-IRC-IRC-IRC-IRC-IRC-IRC-IRC-IRC-IRC-IRC-IRC
                          Input orientation:
 ---------------------------------------------------------------------
 Center     Atomic      Atomic             Coordinates (Angstroms)
 Number     Number       Type             X           Y           Z
 ---------------------------------------------------------------------
      1          6           0       -1.608927    1.483128   -0.055523
      2          1           0       -2.558129    2.003333    0.105595
      3          1           0       -0.821224    1.935972    0.557082
      4          1           0       -1.337131    1.527726   -1.115955
      5          6           0        2.015218    0.234390   -0.190700
      6          1           0        1.604674    0.489319   -1.200318
      7          8           0       -0.646686   -0.610327    0.139174
      8          1           0       -0.346992   -0.737040    1.055851
      9          8           0       -1.874070    0.143300    0.347732
     10          8           0        2.304631   -1.048482   -0.200515
     11          1           0        2.092126   -1.539209   -1.022269
 ---------------------------------------------------------------------
                    Distance matrix (angstroms):
                    1          2          3          4          5
     1  C    0.000000
     2  H    1.094329   0.000000
     3  H    1.095823   1.795889   0.000000
     4  H    1.095617   1.791430   1.797742   0.000000
     5  C    3.835628   4.912479   3.391159   3.710399   0.000000
     6  H    3.553229   4.618070   3.326595   3.120837   1.119313
     7  O    2.312221   3.238203   2.586261   2.573583   2.812134
     8  H    2.785099   3.647157   2.760192   3.290331   2.842112
     9  O    1.424097   1.996569   2.089494   2.085022   3.927438
    10  O    4.663261   5.749236   4.387697   4.553824   1.315149
    11  H    4.875132   5.953701   4.801962   4.601595   1.960376
                    6          7          8          9         10
     6  H    0.000000
     7  O    2.841140   0.000000
     8  H    3.225407   0.972713   0.000000
     9  O    3.823329   1.455308   1.899579   0.000000
    10  O    1.963257   3.002939   2.950688   4.379779   0.000000
    11  H    2.093857   3.116547   3.303235   4.520891   0.980434
                   11
    11  H    0.000000
 Symmetry turned off by external request.
 Stoichiometry    C2H6O3
 Framework group  C1[X(C2H6O3)]
 Deg. of freedom    27
 Full point group                 C1      NOp   1
 Rotational constants (GHZ):     11.0018026      1.8364219      1.6187820
 Standard basis: 6-31++G(d,p) (6D, 7F)
 Integral buffers will be    131072 words long.
 Raffenetti 2 integral format.
 Two-electron integral symmetry is turned off.
   131 basis functions,   208 primitive gaussians,   131 cartesian basis functions
    21 alpha electrons       21 beta electrons
       nuclear repulsion energy       171.2194906374 Hartrees.
 NAtoms=   11 NActive=   11 NUniq=   11 SFac= 7.50D-01 NAtFMM=   80 NAOKFM=F Big=F
 One-electron integrals computed using PRISM.
 NBasis=   131 RedAO= T  NBF=   131
 NBsUse=   131 1.00D-06 NBFU=   131
 Initial guess read from the read-write file.
 B after Tr=     0.000000    0.000000    0.000000
         Rot=    1.000000    0.000000    0.000000    0.000000 Ang=   0.00 deg.
 Harris functional with IExCor=  402 diagonalized for initial guess.
 ExpMin= 3.60D-02 ExpMax= 5.48D+03 ExpMxC= 8.25D+02 IAcc=3 IRadAn=         0 AccDes= 0.00D+00
 HarFok:  IExCor=  402 AccDes= 0.00D+00 IRadAn=         0 IDoV= 1
 ScaDFX=  1.000000  1.000000  1.000000  1.000000
 FoFCou: FMM=F IPFlag=           0 FMFlag=      100000 FMFlg1=           0
         NFxFlg=           0 DoJE=T BraDBF=F KetDBF=T FulRan=T
         Omega=  0.000000  0.000000  1.000000  0.000000  0.000000 ICntrl=     500 IOpCl=  0
         NMat0=    1 NMatS0=    1 NMatT0=    0 NMatD0=    1 NMtDS0=    0 NMtDT0=    0
         I1Cent=           4 NGrid=           0.
 Symmetry not used in FoFCou.
 Requested convergence on RMS density matrix=1.00D-08 within 128 cycles.
 Requested convergence on MAX density matrix=1.00D-06.
 Requested convergence on             energy=1.00D-06.
 No special actions if energy rises.
 Keep R1 ints in memory in canonical form, NReq=38698576.
 SCF Done:  E(RB3LYP) =  -305.293557687     A.U. after    8 cycles
             Convg  =    0.4900D-08             -V/T =  2.0090
 Range of M.O.s used for correlation:     1   131
 NBasis=   131 NAE=    21 NBE=    21 NFC=     0 NFV=     0
 NROrb=    131 NOA=    21 NOB=    21 NVA=   110 NVB=   110

 **** Warning!!: The largest alpha MO coefficient is  0.16395397D+02

 Symmetrizing basis deriv contribution to polar:
 IMax=3 JMax=2 DiffMx= 0.00D+00
 Calling FoFJK, ICntrl=      2147 FMM=F ISym2X=0 I1Cent= 0 IOpClX= 0 NMat=1 NMatS=1 NMatT=0.
 -------------------------------------------------------------------
 Center     Atomic                   Forces (Hartrees/Bohr)
 Number     Number              X              Y              Z
 -------------------------------------------------------------------
      1        6          -0.000262896   -0.000001130   -0.000112024
      2        1          -0.000032532   -0.000019600   -0.000007944
      3        1          -0.000028106    0.000023703   -0.000018986
      4        1          -0.000030342   -0.000004210   -0.000011781
      5        6          -0.000211054   -0.000183112    0.000306910
      6        1           0.000015323    0.000020426    0.000021598
      7        8           0.000360613    0.000323017   -0.000013146
      8        1           0.000046441    0.000050303   -0.000004656
      9        8           0.000167637   -0.000032999    0.000087592
     10        8          -0.000054763   -0.000192591   -0.000209101
     11        1           0.000029679    0.000016194   -0.000038464
 -------------------------------------------------------------------
 Cartesian Forces:  Max     0.000360613 RMS     0.000137280
 IRC-IRC-IRC-IRC-IRC-IRC-IRC-IRC-IRC-IRC-IRC-IRC-IRC-IRC-IRC-IRC-IRC-IRC
 Error in corrector energy =          -0.0000000008
 Magnitude of corrector gradient =     0.0007893376
 Magnitude of analytic gradient =      0.0007886119
 Magnitude of difference =             0.0000019874
 Angle between gradients (degrees)=    0.1344
 Pt 24 Step number   2 out of a maximum of  20
 CORRECTOR INTEGRATION CONVERGENCE:
   Recorrection delta-x convergence threshold:    0.010000
   Delta-x Convergence Met
 Point Number:  12          Path Number:   2
   CHANGE IN THE REACTION COORDINATE =    0.16592
   NET REACTION COORDINATE UP TO THIS POINT =    1.67295
  # OF POINTS ALONG THE PATH =  24
  # OF STEPS =   2

 Calculating another point on the path.
 PES minimum detected within a second-order step.
 Calculation of REVERSE path complete.
 Reaction path calculation complete.

 Energies reported relative to the TS energy of        -305.292980
 --------------------------------------------------------------------------
    Summary of reaction path following
 --------------------------------------------------------------------------
                        Energy   Rx Coord
   1                   -0.00058  -1.67295
   2                   -0.00054  -1.50704
   3                   -0.00049  -1.34106
   4                   -0.00045  -1.17503
   5                   -0.00040  -1.00904
   6                   -0.00035  -0.84316
   7                   -0.00030  -0.67748
   8                   -0.00025  -0.51307
   9                   -0.00019  -0.35298
  10                   -0.00010  -0.19436
  11                   -0.00002  -0.04347
  12                    0.00000  -0.00103
  13                    0.00000   0.00000
  14                   -0.00002   0.02347
  15                   -0.00012   0.17387
  16                   -0.00019   0.33266
  17                   -0.00025   0.49479
  18                   -0.00030   0.65957
  19                   -0.00035   0.82513
  20                   -0.00040   0.99109
  21                   -0.00044   1.15709
  22                   -0.00049   1.32311
  23                   -0.00053   1.48912
  24                   -0.00057   1.65507
  25                   -0.00061   1.82096
 --------------------------------------------------------------------------

 Total number of points:                   24
 Total number of gradient calculations:    77
 Total number of Hessian calculations:      9
 IRC-IRC-IRC-IRC-IRC-IRC-IRC-IRC-IRC-IRC-IRC-IRC-IRC-IRC-IRC-IRC-IRC-IRC
                          Input orientation:
 ---------------------------------------------------------------------
 Center     Atomic      Atomic             Coordinates (Angstroms)
 Number     Number       Type             X           Y           Z
 ---------------------------------------------------------------------
      1          6           0       -1.608927    1.483128   -0.055523
      2          1           0       -2.558129    2.003333    0.105595
      3          1           0       -0.821224    1.935972    0.557082
      4          1           0       -1.337131    1.527726   -1.115955
      5          6           0        2.015218    0.234390   -0.190700
      6          1           0        1.604674    0.489319   -1.200318
      7          8           0       -0.646686   -0.610327    0.139174
      8          1           0       -0.346992   -0.737040    1.055851
      9          8           0       -1.874070    0.143300    0.347732
     10          8           0        2.304631   -1.048482   -0.200515
     11          1           0        2.092126   -1.539209   -1.022269
 ---------------------------------------------------------------------
                    Distance matrix (angstroms):
                    1          2          3          4          5
     1  C    0.000000
     2  H    1.094329   0.000000
     3  H    1.095823   1.795889   0.000000
     4  H    1.095617   1.791430   1.797742   0.000000
     5  C    3.835628   4.912479   3.391159   3.710399   0.000000
     6  H    3.553229   4.618070   3.326595   3.120837   1.119313
     7  O    2.312221   3.238203   2.586261   2.573583   2.812134
     8  H    2.785099   3.647157   2.760192   3.290331   2.842112
     9  O    1.424097   1.996569   2.089494   2.085022   3.927438
    10  O    4.663261   5.749236   4.387697   4.553824   1.315149
    11  H    4.875132   5.953701   4.801962   4.601595   1.960376
                    6          7          8          9         10
     6  H    0.000000
     7  O    2.841140   0.000000
     8  H    3.225407   0.972713   0.000000
     9  O    3.823329   1.455308   1.899579   0.000000
    10  O    1.963257   3.002939   2.950688   4.379779   0.000000
    11  H    2.093857   3.116547   3.303235   4.520891   0.980434
                   11
    11  H    0.000000
 Symmetry turned off by external request.
 Stoichiometry    C2H6O3
 Framework group  C1[X(C2H6O3)]
 Deg. of freedom    27
 Full point group                 C1      NOp   1
 Rotational constants (GHZ):     11.0018026      1.8364219      1.6187820

 **********************************************************************

            Population analysis using the SCF density.

 **********************************************************************

 Alpha  occ. eigenvalues --  -19.24743 -19.22597 -19.22575 -10.26522 -10.24386
 Alpha  occ. eigenvalues --   -1.13267  -1.11478  -0.92881  -0.68728  -0.67913
 Alpha  occ. eigenvalues --   -0.55284  -0.54436  -0.48723  -0.47353  -0.43317
 Alpha  occ. eigenvalues --   -0.42887  -0.41217  -0.38327  -0.31937  -0.28525
 Alpha  occ. eigenvalues --   -0.22842
 Alpha virt. eigenvalues --   -0.06337  -0.03092  -0.00532  -0.00075   0.01071
 Alpha virt. eigenvalues --    0.02585   0.03871   0.04934   0.07085   0.07622
 Alpha virt. eigenvalues --    0.08090   0.10532   0.11611   0.12790   0.13957
 Alpha virt. eigenvalues --    0.15266   0.15685   0.17062   0.18214   0.18762
 Alpha virt. eigenvalues --    0.18873   0.19981   0.20585   0.23206   0.23771
 Alpha virt. eigenvalues --    0.25491   0.26815   0.27757   0.28623   0.30277
 Alpha virt. eigenvalues --    0.30852   0.33814   0.35294   0.38037   0.39673
 Alpha virt. eigenvalues --    0.43716   0.69296   0.69469   0.71963   0.74131
 Alpha virt. eigenvalues --    0.74538   0.78238   0.88370   0.92421   0.94330
 Alpha virt. eigenvalues --    0.95724   0.99621   1.05740   1.09437   1.09855
 Alpha virt. eigenvalues --    1.12407   1.13285   1.15726   1.17239   1.21655
 Alpha virt. eigenvalues --    1.22362   1.24403   1.28441   1.32636   1.36231
 Alpha virt. eigenvalues --    1.39948   1.43393   1.47060   1.50058   1.53380
 Alpha virt. eigenvalues --    1.55893   1.57939   1.62135   1.65303   1.69674
 Alpha virt. eigenvalues --    1.78842   1.90358   1.92439   1.93504   1.95498
 Alpha virt. eigenvalues --    2.01392   2.04005   2.05406   2.10490   2.13517
 Alpha virt. eigenvalues --    2.20908   2.28325   2.36356   2.38870   2.42084
 Alpha virt. eigenvalues --    2.45724   2.48912   2.55985   2.57441   2.60405
 Alpha virt. eigenvalues --    2.62992   2.65041   2.78276   2.82958   2.83852
 Alpha virt. eigenvalues --    2.85502   2.90603   2.95988   3.15227   3.22447
 Alpha virt. eigenvalues --    3.26530   3.40872   3.41456   3.44266   3.47371
 Alpha virt. eigenvalues --    4.04687   4.18176   4.32682   4.35127   4.50122
          Condensed to atoms (all electrons):
              1          2          3          4          5          6
     1  C    4.987632   0.398867   0.407678   0.393726  -0.020516   0.019112
     2  H    0.398867   0.521758  -0.021895  -0.030203  -0.006705   0.005290
     3  H    0.407678  -0.021895   0.549709  -0.048554  -0.033691   0.017199
     4  H    0.393726  -0.030203  -0.048554   0.576476   0.042412  -0.037202
     5  C   -0.020516  -0.006705  -0.033691   0.042412   6.189542  -0.133629
     6  H    0.019112   0.005290   0.017199  -0.037202  -0.133629   1.089786
     7  O   -0.052914   0.009829  -0.005510   0.001764   0.042052  -0.027182
     8  H   -0.004201  -0.000215   0.007874  -0.005226  -0.020754   0.010838
     9  O    0.138410  -0.042539  -0.051284  -0.040138   0.008435  -0.002109
    10  O    0.002946   0.000472   0.005846  -0.007690   0.018236   0.069429
    11  H   -0.005044  -0.001011  -0.003378   0.007969   0.121188  -0.166525
              7          8          9         10         11
     1  C   -0.052914  -0.004201   0.138410   0.002946  -0.005044
     2  H    0.009829  -0.000215  -0.042539   0.000472  -0.001011
     3  H   -0.005510   0.007874  -0.051284   0.005846  -0.003378
     4  H    0.001764  -0.005226  -0.040138  -0.007690   0.007969
     5  C    0.042052  -0.020754   0.008435   0.018236   0.121188
     6  H   -0.027182   0.010838  -0.002109   0.069429  -0.166525
     7  O    7.999139   0.252480   0.166904  -0.004109   0.008504
     8  H    0.252480   0.434622  -0.049341   0.009163  -0.006010
     9  O    0.166904  -0.049341   8.077036  -0.001289   0.001245
    10  O   -0.004109   0.009163  -0.001289   8.088086   0.099626
    11  H    0.008504  -0.006010   0.001245   0.099626   0.608951
 Mulliken atomic charges:
              1
     1  C   -0.265695
     2  H    0.166351
     3  H    0.176006
     4  H    0.146666
     5  C   -0.206570
     6  H    0.154993
     7  O   -0.390957
     8  H    0.370770
     9  O   -0.205331
    10  O   -0.280716
    11  H    0.334483
 Sum of Mulliken atomic charges =   0.00000
 Mulliken charges with hydrogens summed into heavy atoms:
              1
     1  C    0.223328
     5  C   -0.051576
     7  O   -0.020187
     9  O   -0.205331
    10  O    0.053767
 Sum of Mulliken charges with hydrogens summed into heavy atoms =   0.00000
 APT atomic charges:
              1
     1  C   -1.007724
     2  H    0.659767
     3  H    0.257938
     4  H    0.278968
     5  C   -0.556660
     6  H    0.323120
     7  O   -0.544630
     8  H    0.533777
     9  O   -0.181965
    10  O   -0.297985
    11  H    0.535394
 Sum of APT charges=   0.00000
 APT Atomic charges with hydrogens summed into heavy atoms:
              1
     1  C    0.188950
     2  H    0.000000
     3  H    0.000000
     4  H    0.000000
     5  C   -0.233540
     6  H    0.000000
     7  O   -0.010853
     8  H    0.000000
     9  O   -0.181965
    10  O    0.237409
    11  H    0.000000
 Sum of APT charges=   0.00000
 Electronic spatial extent (au):  <R**2>=            695.2957
 Charge=              0.0000 electrons
 Dipole moment (field-independent basis, Debye):
    X=             -0.2327    Y=             -0.1118    Z=             -1.8030  Tot=              1.8213
 Quadrupole moment (field-independent basis, Debye-Ang):
   XX=            -36.4475   YY=            -28.1054   ZZ=            -27.8148
   XY=             -7.0807   XZ=             -5.6562   YZ=              0.3974
 Traceless Quadrupole moment (field-independent basis, Debye-Ang):
   XX=             -5.6582   YY=              2.6838   ZZ=              2.9744
   XY=             -7.0807   XZ=             -5.6562   YZ=              0.3974
 Octapole moment (field-independent basis, Debye-Ang**2):
  XXX=            -11.5341  YYY=            -12.8753  ZZZ=              1.2667  XYY=             -4.8225
  XXY=             -2.4425  XXZ=            -14.5844  XZZ=              2.6262  YZZ=             -8.7993
  YYZ=             -2.8854  XYZ=              4.2897
 Hexadecapole moment (field-independent basis, Debye-Ang**3):
 XXXX=           -656.4678 YYYY=           -195.3163 ZZZZ=            -54.4686 XXXY=             59.3796
 XXXZ=              2.5431 YYYX=             66.3039 YYYZ=              6.4389 ZZZX=             24.7263
 ZZZY=              0.3857 XXYY=           -127.8165 XXZZ=           -108.5113 YYZZ=            -38.2472
 XXYZ=              8.0300 YYXZ=             -1.8983 ZZXY=             22.3671
 N-N= 1.712194906374D+02 E-N=-1.058543089314D+03  KE= 3.025592008633D+02
  Exact polarizability:   0.000   0.000   0.000   0.000   0.000   0.000
 Approx polarizability:  60.967  -8.600  64.967   0.534  -0.261  53.147
 -------------------------------------------------------------------
 Center     Atomic                   Forces (Hartrees/Bohr)
 Number     Number              X              Y              Z
 -------------------------------------------------------------------
      1        6          -0.000262896   -0.000001130   -0.000112024
      2        1          -0.000032532   -0.000019600   -0.000007944
      3        1          -0.000028106    0.000023703   -0.000018986
      4        1          -0.000030342   -0.000004210   -0.000011781
      5        6          -0.000211054   -0.000183112    0.000306910
      6        1           0.000015323    0.000020426    0.000021598
      7        8           0.000360613    0.000323017   -0.000013146
      8        1           0.000046441    0.000050303   -0.000004656
      9        8           0.000167637   -0.000032999    0.000087592
     10        8          -0.000054763   -0.000192591   -0.000209101
     11        1           0.000029679    0.000016194   -0.000038464
 -------------------------------------------------------------------
 Cartesian Forces:  Max     0.000360613 RMS     0.000137280

 This type of calculation cannot be archived.


      TO SUSPECT YOUR OWN MORTALITY IS TO KNOW THE BEGINNING OF TERROR.
      TO LEARN IRREFUTABLY THAT YOU ARE MORTAL IS TO KNOW THE END
      OF TERROR.

                                                  -- JESSICA
                                                     CHILDREN OF DUNE
                                                     BY FRANK HERBERT
 Job cpu time:  0 days  1 hours 27 minutes 35.0 seconds.
 File lengths (MBytes):  RWF=     27 Int=      0 D2E=      0 Chk=      4 Scr=      1
 Normal termination of Gaussian 09 at Mon May 11 13:36:21 2020.