 Entering Gaussian System, Link 0=/usr/local_rwth/sw/gaussian/LINUX_emt64/g09.a02/g09
 Input=Veresterung.com
 Output=Veresterung.log
 Initial command:
 /usr/local_rwth/sw/gaussian/LINUX_emt64/g09.a02/l1.exe /tmp/dk918358/login18-1_249017/Gau-12018.inp -scrdir=/tmp/dk918358/login18-1_249017/
 Entering Link 1 = /usr/local_rwth/sw/gaussian/LINUX_emt64/g09.a02/l1.exe PID=     12548.
  
 Copyright (c) 1988,1990,1992,1993,1995,1998,2003,2009, Gaussian, Inc.
                  All Rights Reserved.
  
 This is part of the Gaussian(R) 09 program.  It is based on
 the Gaussian(R) 03 system (copyright 2003, Gaussian, Inc.),
 the Gaussian(R) 98 system (copyright 1998, Gaussian, Inc.),
 the Gaussian(R) 94 system (copyright 1995, Gaussian, Inc.),
 the Gaussian 92(TM) system (copyright 1992, Gaussian, Inc.),
 the Gaussian 90(TM) system (copyright 1990, Gaussian, Inc.),
 the Gaussian 88(TM) system (copyright 1988, Gaussian, Inc.),
 the Gaussian 86(TM) system (copyright 1986, Carnegie Mellon
 University), and the Gaussian 82(TM) system (copyright 1983,
 Carnegie Mellon University). Gaussian is a federally registered
 trademark of Gaussian, Inc.
  
 This software contains proprietary and confidential information,
 including trade secrets, belonging to Gaussian, Inc.
  
 This software is provided under written license and may be
 used, copied, transmitted, or stored only in accord with that
 written license.
  
 The following legend is applicable only to US Government
 contracts under FAR:
  
                    RESTRICTED RIGHTS LEGEND
  
 Use, reproduction and disclosure by the US Government is
 subject to restrictions as set forth in subparagraphs (a)
 and (c) of the Commercial Computer Software - Restricted
 Rights clause in FAR 52.227-19.
  
 Gaussian, Inc.
 340 Quinnipiac St., Bldg. 40, Wallingford CT 06492
  
  
 ---------------------------------------------------------------
 Warning -- This program may not be used in any manner that
 competes with the business of Gaussian, Inc. or will provide
 assistance to any competitor of Gaussian, Inc.  The licensee
 of this program is prohibited from giving any competitor of
 Gaussian, Inc. access to this program.  By using this program,
 the user acknowledges that Gaussian, Inc. is engaged in the
 business of creating and licensing software in the field of
 computational chemistry and represents and warrants to the
 licensee that it is not a competitor of Gaussian, Inc. and that
 it will not use this program in any manner prohibited above.
 ---------------------------------------------------------------
  

 Cite this work as:
 Gaussian 09, Revision A.02,
 M. J. Frisch, G. W. Trucks, H. B. Schlegel, G. E. Scuseria, 
 M. A. Robb, J. R. Cheeseman, G. Scalmani, V. Barone, B. Mennucci, 
 G. A. Petersson, H. Nakatsuji, M. Caricato, X. Li, H. P. Hratchian, 
 A. F. Izmaylov, J. Bloino, G. Zheng, J. L. Sonnenberg, M. Hada, 
 M. Ehara, K. Toyota, R. Fukuda, J. Hasegawa, M. Ishida, T. Nakajima, 
 Y. Honda, O. Kitao, H. Nakai, T. Vreven, J. A. Montgomery, Jr., 
 J. E. Peralta, F. Ogliaro, M. Bearpark, J. J. Heyd, E. Brothers, 
 K. N. Kudin, V. N. Staroverov, R. Kobayashi, J. Normand, 
 K. Raghavachari, A. Rendell, J. C. Burant, S. S. Iyengar, J. Tomasi, 
 M. Cossi, N. Rega, J. M. Millam, M. Klene, J. E. Knox, J. B. Cross, 
 V. Bakken, C. Adamo, J. Jaramillo, R. Gomperts, R. E. Stratmann, 
 O. Yazyev, A. J. Austin, R. Cammi, C. Pomelli, J. W. Ochterski, 
 R. L. Martin, K. Morokuma, V. G. Zakrzewski, G. A. Voth, 
 P. Salvador, J. J. Dannenberg, S. Dapprich, A. D. Daniels, 
 O. Farkas, J. B. Foresman, J. V. Ortiz, J. Cioslowski, 
 and D. J. Fox, Gaussian, Inc., Wallingford CT, 2009.
 
 ******************************************
 Gaussian 09:  EM64L-G09RevA.02 11-Jun-2009
                 7-May-2020 
 ******************************************
 %nprocshared=8
 Will use up to    8 processors via shared memory.
 %mem=8GB
 %chk=Veresterung.chk
 Default route: MaxDisk=200000000
 ---------------------
 # opt=calcfc hf/3-21g
 ---------------------
 1/10=4,18=20,19=15,38=1/1,3;
 2/9=110,12=2,17=6,18=5,40=1/2;
 3/5=5,11=9,16=1,25=1,30=1,71=2/1,2,3;
 4//1;
 5/5=2,38=5/2;
 8/6=4,10=90,11=11/1;
 11/6=1,8=1,9=11,15=111,16=1/1,2,10;
 10/6=1,7=6,13=1/2;
 6/7=2,8=2,9=2,10=2,28=1/1;
 7/10=1,18=20,25=1/1,2,3,16;
 1/10=4,18=20,19=15/3(2);
 2/9=110/2;
 99//99;
 2/9=110/2;
 3/5=5,11=9,16=1,25=1,30=1,71=1/1,2,3;
 4/5=5,16=3/1;
 5/5=2,38=5/2;
 7//1,2,3,16;
 1/18=20,19=15/3(-5);
 2/9=110/2;
 6/7=2,8=2,9=2,10=2,19=2,28=1/1;
 99/9=1/99;
 -----------
 Veresterung
 -----------
 Symbolic Z-matrix:
 Charge =  0 Multiplicity = 1
 C                    -2.22652  -0.50808  -0.05147 
 H                    -1.86985  -0.0034    0.82203 
 H                    -1.87019  -0.00371  -0.92528 
 H                    -3.29652  -0.50842  -0.05126 
 C                     1.14497  -0.8773   -0.23839 
 H                     1.66685  -0.1472   -0.82105 
 O                    -1.74942  -1.85614  -0.05133 
 H                    -2.06912  -2.30865   0.73265 
 O                    -0.18318  -0.61038   0.21951 
 O                     1.77566  -2.11997   0.0824 
 H                     2.72512  -1.99105   0.14158 
 

 GradGradGradGradGradGradGradGradGradGradGradGradGradGradGradGradGradGrad
 Berny optimization.
 Initialization pass.
                           ----------------------------
                           !    Initial Parameters    !
                           ! (Angstroms and Degrees)  !
 --------------------------                            --------------------------
 ! Name  Definition              Value          Derivative Info.                !
 --------------------------------------------------------------------------------
 ! R1    R(1,2)                  1.07           calculate D2E/DX2 analytically  !
 ! R2    R(1,3)                  1.07           calculate D2E/DX2 analytically  !
 ! R3    R(1,4)                  1.07           calculate D2E/DX2 analytically  !
 ! R4    R(1,7)                  1.43           calculate D2E/DX2 analytically  !
 ! R5    R(1,9)                  2.0638         calculate D2E/DX2 analytically  !
 ! R6    R(2,9)                  1.8911         calculate D2E/DX2 analytically  !
 ! R7    R(3,9)                  2.1271         calculate D2E/DX2 analytically  !
 ! R8    R(5,6)                  1.07           calculate D2E/DX2 analytically  !
 ! R9    R(5,9)                  1.43           calculate D2E/DX2 analytically  !
 ! R10   R(5,10)                 1.43           calculate D2E/DX2 analytically  !
 ! R11   R(7,8)                  0.96           calculate D2E/DX2 analytically  !
 ! R12   R(7,9)                  2.0195         calculate D2E/DX2 analytically  !
 ! R13   R(10,11)                0.96           calculate D2E/DX2 analytically  !
 ! A1    A(2,1,3)              109.4712         calculate D2E/DX2 analytically  !
 ! A2    A(2,1,4)              109.4712         calculate D2E/DX2 analytically  !
 ! A3    A(2,1,7)              109.4712         calculate D2E/DX2 analytically  !
 ! A4    A(3,1,4)              109.4712         calculate D2E/DX2 analytically  !
 ! A5    A(3,1,7)              109.4712         calculate D2E/DX2 analytically  !
 ! A6    A(4,1,7)              109.4712         calculate D2E/DX2 analytically  !
 ! A7    A(4,1,9)              171.9151         calculate D2E/DX2 analytically  !
 ! A8    A(6,5,9)              120.0            calculate D2E/DX2 analytically  !
 ! A9    A(6,5,10)             120.0            calculate D2E/DX2 analytically  !
 ! A10   A(9,5,10)             120.0            calculate D2E/DX2 analytically  !
 ! A11   A(1,7,8)              109.4712         calculate D2E/DX2 analytically  !
 ! A12   A(8,7,9)              116.074          calculate D2E/DX2 analytically  !
 ! A13   A(1,9,5)              152.4728         calculate D2E/DX2 analytically  !
 ! A14   A(2,9,3)               51.1389         calculate D2E/DX2 analytically  !
 ! A15   A(2,9,5)              172.013          calculate D2E/DX2 analytically  !
 ! A16   A(2,9,7)               63.1922         calculate D2E/DX2 analytically  !
 ! A17   A(3,9,5)              128.1349         calculate D2E/DX2 analytically  !
 ! A18   A(3,9,7)               59.2471         calculate D2E/DX2 analytically  !
 ! A19   A(5,9,7)              124.2106         calculate D2E/DX2 analytically  !
 ! A20   A(5,10,11)            109.4712         calculate D2E/DX2 analytically  !
 ! D1    D(2,1,7,8)             60.0            calculate D2E/DX2 analytically  !
 ! D2    D(3,1,7,8)           -180.0            calculate D2E/DX2 analytically  !
 ! D3    D(4,1,7,8)            -60.0            calculate D2E/DX2 analytically  !
 ! D4    D(4,1,9,5)            141.4            calculate D2E/DX2 analytically  !
 ! D5    D(6,5,9,1)             80.5358         calculate D2E/DX2 analytically  !
 ! D6    D(6,5,9,2)            -28.5947         calculate D2E/DX2 analytically  !
 ! D7    D(6,5,9,3)             53.035          calculate D2E/DX2 analytically  !
 ! D8    D(6,5,9,7)            128.4181         calculate D2E/DX2 analytically  !
 ! D9    D(10,5,9,1)           -99.4642         calculate D2E/DX2 analytically  !
 ! D10   D(10,5,9,2)           151.4053         calculate D2E/DX2 analytically  !
 ! D11   D(10,5,9,3)          -126.965          calculate D2E/DX2 analytically  !
 ! D12   D(10,5,9,7)           -51.5819         calculate D2E/DX2 analytically  !
 ! D13   D(6,5,10,11)           30.0            calculate D2E/DX2 analytically  !
 ! D14   D(9,5,10,11)         -150.0            calculate D2E/DX2 analytically  !
 ! D15   D(8,7,9,2)            -74.9857         calculate D2E/DX2 analytically  !
 ! D16   D(8,7,9,3)           -133.8306         calculate D2E/DX2 analytically  !
 ! D17   D(8,7,9,5)            108.4999         calculate D2E/DX2 analytically  !
 --------------------------------------------------------------------------------
 Trust Radius=3.00D-01 FncErr=1.00D-07 GrdErr=1.00D-07
 Number of steps in this run=  60 maximum allowed number of steps= 100.
 GradGradGradGradGradGradGradGradGradGradGradGradGradGradGradGradGradGrad

                          Input orientation:                          
 ---------------------------------------------------------------------
 Center     Atomic      Atomic             Coordinates (Angstroms)
 Number     Number       Type             X           Y           Z
 ---------------------------------------------------------------------
      1          6           0       -2.226522   -0.508075   -0.051470
      2          1           0       -1.869852   -0.003404    0.822025
      3          1           0       -1.870187   -0.003709   -0.925277
      4          1           0       -3.296522   -0.508424   -0.051265
      5          6           0        1.144973   -0.877303   -0.238394
      6          1           0        1.666849   -0.147198   -0.821053
      7          8           0       -1.749416   -1.856137   -0.051326
      8          1           0       -2.069119   -2.308653    0.732651
      9          8           0       -0.183176   -0.610383    0.219508
     10          8           0        1.775662   -2.119971    0.082399
     11          1           0        2.725124   -1.991054    0.141583
 ---------------------------------------------------------------------
                    Distance matrix (angstroms):
                    1          2          3          4          5
     1  C    0.000000
     2  H    1.070000   0.000000
     3  H    1.070000   1.747303   0.000000
     4  H    1.070000   1.747303   1.747303   0.000000
     5  C    3.396800   3.313210   3.213435   4.460714   0.000000
     6  H    3.985076   3.902389   3.541479   5.035684   1.070000
     7  O    1.430000   2.051796   2.051796   2.051796   3.061144
     8  H    1.970203   2.315570   2.846237   2.315570   3.649942
     9  O    2.063773   1.891118   2.127109   3.126762   1.430000
    10  O    4.316666   4.279799   4.334304   5.323721   1.430000
    11  H    5.172552   5.052481   5.119044   6.204482   1.970203
                    6          7          8          9         10
     6  H    0.000000
     7  O    3.896643   0.000000
     8  H    4.587302   0.960000   0.000000
     9  O    2.172533   2.019496   2.589250   0.000000
    10  O    2.172533   3.537466   3.903943   2.476833   0.000000
    11  H    2.333757   4.480728   4.840970   3.220331   0.960000
                   11
    11  H    0.000000
 Stoichiometry    C2H6O3
 Framework group  C1[X(C2H6O3)]
 Deg. of freedom    27
 Full point group                 C1      NOp   1
 Largest Abelian subgroup         C1      NOp   1
 Largest concise Abelian subgroup C1      NOp   1
                         Standard orientation:                         
 ---------------------------------------------------------------------
 Center     Atomic      Atomic             Coordinates (Angstroms)
 Number     Number       Type             X           Y           Z
 ---------------------------------------------------------------------
      1          6           0        2.016621   -0.352797   -0.030194
      2          1           0        1.758777   -0.793960    0.909908
      3          1           0        1.742046   -1.016795   -0.823047
      4          1           0        3.071159   -0.174600   -0.063289
      5          6           0       -1.370478   -0.575978   -0.156680
      6          1           0       -1.767273   -1.451022   -0.627585
      7          8           0        1.318838    0.886042   -0.182755
      8          1           0        1.565186    1.481778    0.528590
      9          8           0       -0.011938   -0.557746    0.289343
     10          8           0       -2.198722    0.575241    0.026638
     11          1           0       -3.112177    0.298951    0.130863
 ---------------------------------------------------------------------
 Rotational constants (GHZ):     13.0270258      2.3871422      2.0888901
 Standard basis: 3-21G (6D, 7F)
 There are    57 symmetry adapted basis functions of A   symmetry.
 Integral buffers will be    131072 words long.
 Raffenetti 1 integral format.
 Two-electron integral symmetry is turned on.
    57 basis functions,    93 primitive gaussians,    57 cartesian basis functions
    21 alpha electrons       21 beta electrons
       nuclear repulsion energy       181.4369053416 Hartrees.
 NAtoms=   11 NActive=   11 NUniq=   11 SFac= 7.50D-01 NAtFMM=   80 NAOKFM=F Big=F
 One-electron integrals computed using PRISM.
 NBasis=    57 RedAO= T  NBF=    57
 NBsUse=    57 1.00D-06 NBFU=    57
 Harris functional with IExCor=  205 diagonalized for initial guess.
 ExpMin= 1.83D-01 ExpMax= 3.22D+02 ExpMxC= 3.22D+02 IAcc=1 IRadAn=         1 AccDes= 0.00D+00
 HarFok:  IExCor=  205 AccDes= 0.00D+00 IRadAn=         1 IDoV= 1
 ScaDFX=  1.000000  1.000000  1.000000  1.000000
 FoFCou: FMM=F IPFlag=           0 FMFlag=      100000 FMFlg1=           0
         NFxFlg=           0 DoJE=T BraDBF=F KetDBF=T FulRan=T
         Omega=  0.000000  0.000000  1.000000  0.000000  0.000000 ICntrl=     500 IOpCl=  0
         NMat0=    1 NMatS0=    1 NMatT0=    0 NMatD0=    1 NMtDS0=    0 NMtDT0=    0
         I1Cent=           4 NGrid=           0.
 Petite list used in FoFCou.
 Initial guess orbital symmetries:
       Occupied  (A) (A) (A) (A) (A) (A) (A) (A) (A) (A) (A) (A)
                 (A) (A) (A) (A) (A) (A) (A) (A) (A)
       Virtual   (A) (A) (A) (A) (A) (A) (A) (A) (A) (A) (A) (A)
                 (A) (A) (A) (A) (A) (A) (A) (A) (A) (A) (A) (A)
                 (A) (A) (A) (A) (A) (A) (A) (A) (A) (A) (A) (A)
 The electronic state of the initial guess is 1-A.
 Requested convergence on RMS density matrix=1.00D-08 within 128 cycles.
 Requested convergence on MAX density matrix=1.00D-06.
 Requested convergence on             energy=1.00D-06.
 No special actions if energy rises.
 Keep R1 ints in memory in canonical form, NReq=2195842.
 SCF Done:  E(RHF) =  -301.950348261     A.U. after   16 cycles
             Convg  =    0.4417D-08             -V/T =  2.0037
 Range of M.O.s used for correlation:     1    57
 NBasis=    57 NAE=    21 NBE=    21 NFC=     0 NFV=     0
 NROrb=     57 NOA=    21 NOB=    21 NVA=    36 NVB=    36
 Symmetrizing basis deriv contribution to polar:
 IMax=3 JMax=2 DiffMx= 0.00D+00
 G2DrvN: will do    12 centers at a time, making    1 passes doing MaxLOS=1.
 Calling FoFCou, ICntrl=  3107 FMM=F I1Cent=   0 AccDes= 0.00D+00.
 FoFDir/FoFCou used for L=0 through L=1.
 End of G2Drv Frequency-dependent properties file   721 does not exist.
 End of G2Drv Frequency-dependent properties file   722 does not exist.
          IDoAtm=11111111111
          Differentiating once with respect to nuclear coordinates.
          Keep R1 ints in memory in canonical form, NReq=2167896.
          There are    36 degrees of freedom in the 1st order CPHF.  IDoFFX=5.
     30 vectors produced by pass  0 Test12= 2.10D-11 2.78D-07 XBig12= 7.80D-02 7.70D-02.
 AX will form    30 AO Fock derivatives at one time.
     30 vectors produced by pass  1 Test12= 2.10D-11 2.78D-07 XBig12= 2.31D-02 7.91D-02.
     30 vectors produced by pass  2 Test12= 2.10D-11 2.78D-07 XBig12= 1.95D-04 3.86D-03.
     30 vectors produced by pass  3 Test12= 2.10D-11 2.78D-07 XBig12= 1.20D-06 3.36D-04.
     29 vectors produced by pass  4 Test12= 2.10D-11 2.78D-07 XBig12= 6.05D-09 1.23D-05.
      4 vectors produced by pass  5 Test12= 2.10D-11 2.78D-07 XBig12= 2.91D-11 1.44D-06.
 Inverted reduced A of dimension   153 with in-core refinement.
 End of Minotr Frequency-dependent properties file   721 does not exist.
 End of Minotr Frequency-dependent properties file   722 does not exist.

 **********************************************************************

            Population analysis using the SCF density.

 **********************************************************************

 Orbital symmetries:
       Occupied  (A) (A) (A) (A) (A) (A) (A) (A) (A) (A) (A) (A)
                 (A) (A) (A) (A) (A) (A) (A) (A) (A)
       Virtual   (A) (A) (A) (A) (A) (A) (A) (A) (A) (A) (A) (A)
                 (A) (A) (A) (A) (A) (A) (A) (A) (A) (A) (A) (A)
                 (A) (A) (A) (A) (A) (A) (A) (A) (A) (A) (A) (A)
 The electronic state is 1-A.
 Alpha  occ. eigenvalues --  -20.51883 -20.45952 -20.38780 -11.35680 -11.16506
 Alpha  occ. eigenvalues --   -1.41374  -1.31799  -1.25871  -0.90462  -0.87009
 Alpha  occ. eigenvalues --   -0.74765  -0.65627  -0.63200  -0.59538  -0.55725
 Alpha  occ. eigenvalues --   -0.55067  -0.49941  -0.47037  -0.43602  -0.41922
 Alpha  occ. eigenvalues --   -0.34855
 Alpha virt. eigenvalues --    0.11097   0.24004   0.27222   0.30760   0.35260
 Alpha virt. eigenvalues --    0.39013   0.40105   0.42727   0.45217   0.48716
 Alpha virt. eigenvalues --    0.91868   0.94102   0.98574   0.99699   1.01139
 Alpha virt. eigenvalues --    1.12781   1.14196   1.27389   1.31576   1.36719
 Alpha virt. eigenvalues --    1.39860   1.42923   1.50997   1.78553   1.83509
 Alpha virt. eigenvalues --    1.87843   1.95065   1.98173   2.04227   2.12590
 Alpha virt. eigenvalues --    2.14548   2.22464   2.57228   3.22776   3.30636
 Alpha virt. eigenvalues --    3.48830
          Condensed to atoms (all electrons):
              1          2          3          4          5          6
     1  C    5.059974   0.366060   0.378264   0.343249   0.002097  -0.000214
     2  H    0.366060   0.562583  -0.036382  -0.044193   0.000121   0.000040
     3  H    0.378264  -0.036382   0.509661  -0.033534   0.000011  -0.000071
     4  H    0.343249  -0.044193  -0.033534   0.632938  -0.000082   0.000001
     5  C    0.002097   0.000121   0.000011  -0.000082   4.655411   0.287393
     6  H   -0.000214   0.000040  -0.000071   0.000001   0.287393   0.563994
     7  O    0.220251  -0.037937  -0.027391  -0.035106   0.001753  -0.000089
     8  H   -0.050314  -0.003268   0.004754  -0.002068  -0.000214   0.000015
     9  O   -0.078642  -0.004689   0.000488   0.003393   0.406802  -0.038863
    10  O    0.000005  -0.000010   0.000002   0.000000   0.220969  -0.045166
    11  H    0.000001   0.000000   0.000000   0.000000  -0.031617  -0.001628
              7          8          9         10         11
     1  C    0.220251  -0.050314  -0.078642   0.000005   0.000001
     2  H   -0.037937  -0.003268  -0.004689  -0.000010   0.000000
     3  H   -0.027391   0.004754   0.000488   0.000002   0.000000
     4  H   -0.035106  -0.002068   0.003393   0.000000   0.000000
     5  C    0.001753  -0.000214   0.406802   0.220969  -0.031617
     6  H   -0.000089   0.000015  -0.038863  -0.045166  -0.001628
     7  O    8.342101   0.263085  -0.059682   0.000018  -0.000003
     8  H    0.263085   0.424564   0.005447   0.000004   0.000000
     9  O   -0.059682   0.005447   8.232638  -0.022963   0.000997
    10  O    0.000018   0.000004  -0.022963   8.232026   0.256884
    11  H   -0.000003   0.000000   0.000997   0.256884   0.368146
 Mulliken atomic charges:
              1
     1  C   -0.240732
     2  H    0.197676
     3  H    0.204198
     4  H    0.135401
     5  C    0.457356
     6  H    0.234588
     7  O   -0.667001
     8  H    0.357993
     9  O   -0.444928
    10  O   -0.641769
    11  H    0.407219
 Sum of Mulliken atomic charges =   0.00000
 Mulliken charges with hydrogens summed into heavy atoms:
              1
     1  C    0.296542
     5  C    0.691944
     7  O   -0.309008
     9  O   -0.444928
    10  O   -0.234550
 Sum of Mulliken charges with hydrogens summed into heavy atoms =   0.00000
 APT atomic charges:
              1
     1  C   -0.961695
     2  H    0.293102
     3  H    0.343303
     4  H    0.461928
     5  C    0.371143
     6  H    0.488869
     7  O   -0.918593
     8  H    0.621009
     9  O   -0.515238
    10  O   -1.009888
    11  H    0.826059
 Sum of APT charges=   0.00000
 APT Atomic charges with hydrogens summed into heavy atoms:
              1
     1  C    0.136637
     2  H    0.000000
     3  H    0.000000
     4  H    0.000000
     5  C    0.860013
     6  H    0.000000
     7  O   -0.297584
     8  H    0.000000
     9  O   -0.515238
    10  O   -0.183828
    11  H    0.000000
 Sum of APT charges=   0.00000
 Electronic spatial extent (au):  <R**2>=            564.9136
 Charge=              0.0000 electrons
 Dipole moment (field-independent basis, Debye):
    X=             -3.3725    Y=             -2.3556    Z=              0.4779  Tot=              4.1414
 Quadrupole moment (field-independent basis, Debye-Ang):
   XX=            -15.6991   YY=            -29.2548   ZZ=            -29.8724
   XY=              4.8471   XZ=              2.6975   YZ=              3.4225
 Traceless Quadrupole moment (field-independent basis, Debye-Ang):
   XX=              9.2430   YY=             -4.3127   ZZ=             -4.9303
   XY=              4.8471   XZ=              2.6975   YZ=              3.4225
 Octapole moment (field-independent basis, Debye-Ang**2):
  XXX=            -44.7502  YYY=              5.0634  ZZZ=              1.2972  XYY=              0.3323
  XXY=             -4.6703  XXZ=              4.7030  XZZ=             -1.5650  YZZ=              1.0106
  YYZ=              2.0414  XYZ=              2.3990
 Hexadecapole moment (field-independent basis, Debye-Ang**3):
 XXXX=           -386.4283 YYYY=            -96.8859 ZZZZ=            -36.3091 XXXY=             12.6306
 XXXZ=             -0.7302 YYYX=             12.2190 YYYZ=              6.6390 ZZZX=              0.8382
 ZZZY=              1.2297 XXYY=           -101.3448 XXZZ=            -95.1270 YYZZ=            -21.9744
 XXYZ=              8.1595 YYXZ=              6.0709 ZZXY=              1.4271
 N-N= 1.814369053416D+02 E-N=-1.076482431055D+03  KE= 3.008397866308D+02
  Exact polarizability:   0.000   0.000   0.000   0.000   0.000   0.000
 Approx polarizability:  39.926  -1.442  22.445   5.469   2.316  16.992
 Calling FoFJK, ICntrl=    100147 FMM=F ISym2X=0 I1Cent= 0 IOpClX= 0 NMat=1 NMatS=1 NMatT=0.
 ***** Axes restored to original set *****
 -------------------------------------------------------------------
 Center     Atomic                   Forces (Hartrees/Bohr)
 Number     Number              X              Y              Z
 -------------------------------------------------------------------
      1        6          -0.037837114   -0.003190412    0.006937305
      2        1          -0.010738475    0.010636748    0.002103785
      3        1          -0.001748923   -0.000554349   -0.002629742
      4        1          -0.016710080    0.001649352   -0.002499414
      5        6          -0.178934580   -0.011181204    0.090324556
      6        1           0.004250032   -0.005084149   -0.005327371
      7        8          -0.046279326   -0.033776129   -0.025058960
      8        1          -0.001034574   -0.003151921    0.005424002
      9        8           0.310298259   -0.013743592   -0.054802816
     10        8          -0.032644709    0.062399638   -0.012511305
     11        1           0.011379491   -0.004003982   -0.001960039
 -------------------------------------------------------------------
 Cartesian Forces:  Max     0.310298259 RMS     0.067664109

 GradGradGradGradGradGradGradGradGradGradGradGradGradGradGradGradGradGrad
 Berny optimization.
 Internal  Forces:  Max     0.212440425 RMS     0.033429081
 Search for a local minimum.
 Step number   1 out of a maximum of   60
 All quantities printed in internal units (Hartrees-Bohrs-Radians)
 Mixed Optimization -- RFO/linear search
 Second derivative matrix not updated -- analytic derivatives used.
     Eigenvalues ---   -0.00509  -0.00256  -0.00049   0.00021   0.00107
     Eigenvalues ---    0.00207   0.01992   0.02617   0.03729   0.04496
     Eigenvalues ---    0.08436   0.08765   0.10150   0.10902   0.14615
     Eigenvalues ---    0.15863   0.16309   0.16672   0.20330   0.30405
     Eigenvalues ---    0.32812   0.33332   0.36054   0.39883   0.40422
     Eigenvalues ---    0.55827   0.564421000.000001000.000001000.00000
     Eigenvalues --- 1000.000001000.000001000.000001000.000001000.00000
     Eigenvalues --- 1000.000001000.000001000.000001000.000001000.00000
     Eigenvalues --- 1000.000001000.000001000.000001000.000001000.00000
     Eigenvalues --- 1000.000001000.000001000.000001000.000001000.00000
 RFO step:  Lambda=-1.77182747D-01 EMin=-5.09050041D-03
 Linear search not attempted -- first point.
 Maximum step size (   0.300) exceeded in Quadratic search.
    -- Step size scaled by   0.218
 Iteration  1 RMS(Cart)=  0.04621721 RMS(Int)=  0.01629789
 Iteration  2 RMS(Cart)=  0.02533893 RMS(Int)=  0.00200444
 Iteration  3 RMS(Cart)=  0.00033802 RMS(Int)=  0.00197438
 Iteration  4 RMS(Cart)=  0.00000101 RMS(Int)=  0.00197438
 Iteration  5 RMS(Cart)=  0.00000001 RMS(Int)=  0.00197438
 Variable       Old X    -DE/DX   Delta X   Delta X   Delta X     New X
                                 (Linear)    (Quad)   (Total)
    R1        2.02201   0.00351   0.00000   0.00158   0.00534   2.02734
    R2        2.02201   0.00179   0.00000   0.00049   0.00182   2.02382
    R3        2.02201   0.01671   0.00000   0.00522   0.00522   2.02722
    R4        2.70231   0.00804   0.00000   0.00181   0.00081   2.70312
    R5        3.89997   0.03675   0.00000   0.03749   0.03643   3.93640
    R6        3.57370   0.01902   0.00000  -0.00834  -0.00959   3.56410
    R7        4.01965   0.01021   0.00000   0.05269   0.05156   4.07122
    R8        2.02201   0.00150   0.00000   0.00051   0.00051   2.02252
    R9        2.70231  -0.21244   0.00000  -0.16373  -0.16373   2.53858
   R10        2.70231  -0.06337   0.00000  -0.01294  -0.01294   2.68937
   R11        1.81414   0.00626   0.00000   0.00093   0.00093   1.81507
   R12        3.81629   0.05758   0.00000   0.02855   0.03001   3.84631
   R13        1.81414   0.01060   0.00000   0.00205   0.00205   1.81619
    A1        1.91063  -0.00646   0.00000  -0.00456  -0.00332   1.90731
    A2        1.91063   0.00855   0.00000  -0.00477  -0.00604   1.90459
    A3        1.91063   0.00748   0.00000   0.00151   0.00163   1.91227
    A4        1.91063   0.00668   0.00000   0.00857   0.00778   1.91841
    A5        1.91063  -0.00936   0.00000  -0.00923  -0.01061   1.90002
    A6        1.91063  -0.00689   0.00000   0.00848   0.01053   1.92116
    A7        3.00048   0.00486   0.00000  -0.02158  -0.02178   2.97870
    A8        2.09440   0.00535   0.00000   0.00708   0.00708   2.10147
    A9        2.09440  -0.00831   0.00000  -0.01013  -0.01013   2.08426
   A10        2.09440   0.00297   0.00000   0.00305   0.00305   2.09745
   A11        1.91063  -0.00140   0.00000  -0.00044  -0.00288   1.90775
   A12        2.02587   0.00045   0.00000  -0.05025  -0.05061   1.97527
   A13        2.66115   0.00218   0.00000  -0.03787  -0.03439   2.62677
   A14        0.89254  -0.00436   0.00000  -0.00866  -0.00682   0.88572
   A15        3.00219   0.00385   0.00000   0.07213   0.07349   3.07568
   A16        1.10291  -0.00708   0.00000  -0.00238  -0.00182   1.10109
   A17        2.23638   0.00467   0.00000   0.00065   0.00654   2.24292
   A18        1.03406  -0.01049   0.00000  -0.01512  -0.01547   1.01858
   A19        2.16788   0.00303   0.00000  -0.07214  -0.07061   2.09728
   A20        1.91063   0.00871   0.00000   0.00445   0.00445   1.91508
    D1        1.04720   0.00611   0.00000  -0.02477  -0.02481   1.02238
    D2        3.14159  -0.00296   0.00000  -0.03508  -0.03432   3.10727
    D3       -1.04720  -0.00473   0.00000  -0.02505  -0.02490  -1.07210
    D4        2.46790   0.00243   0.00000  -0.02939  -0.02990   2.43799
    D5        1.40561   0.00098   0.00000   0.00642   0.00466   1.41027
    D6       -0.49907  -0.00111   0.00000   0.02356   0.02417  -0.47491
    D7        0.92564  -0.00038   0.00000  -0.05260  -0.05348   0.87216
    D8        2.24132  -0.01046   0.00000  -0.11865  -0.11662   2.12470
    D9       -1.73598   0.00276   0.00000   0.00899   0.00723  -1.72875
   D10        2.64252   0.00067   0.00000   0.02613   0.02674   2.66926
   D11       -2.21596   0.00140   0.00000  -0.05003  -0.05090  -2.26686
   D12       -0.90027  -0.00868   0.00000  -0.11608  -0.11405  -1.01432
   D13        0.52360  -0.00231   0.00000   0.03820   0.03819   0.56179
   D14       -2.61799  -0.00409   0.00000   0.03563   0.03564  -2.58235
   D15       -1.30875  -0.00068   0.00000  -0.02374  -0.01992  -1.32866
   D16       -2.33578  -0.00069   0.00000  -0.01788  -0.01601  -2.35179
   D17        1.89368  -0.00079   0.00000  -0.03456  -0.04264   1.85104
         Item               Value     Threshold  Converged?
 Maximum Force            0.212440     0.000450     NO 
 RMS     Force            0.033429     0.000300     NO 
 Maximum Displacement     0.184158     0.001800     NO 
 RMS     Displacement     0.071287     0.001200     NO 
 Predicted change in Energy=-3.985996D-02
 GradGradGradGradGradGradGradGradGradGradGradGradGradGradGradGradGradGrad

                          Input orientation:                          
 ---------------------------------------------------------------------
 Center     Atomic      Atomic             Coordinates (Angstroms)
 Number     Number       Type             X           Y           Z
 ---------------------------------------------------------------------
      1          6           0       -2.207044   -0.504724   -0.043126
      2          1           0       -1.833664   -0.029968    0.843522
      3          1           0       -1.874568    0.040418   -0.902915
      4          1           0       -3.279232   -0.516996   -0.010314
      5          6           0        1.084074   -0.885169   -0.239744
      6          1           0        1.594349   -0.222275   -0.907331
      7          8           0       -1.702835   -1.841168   -0.119447
      8          1           0       -1.971667   -2.327228    0.664149
      9          8           0       -0.141653   -0.579328    0.217060
     10          8           0        1.714114   -2.097425    0.158817
     11          1           0        2.665940   -1.970447    0.198710
 ---------------------------------------------------------------------
                    Distance matrix (angstroms):
                    1          2          3          4          5
     1  C    0.000000
     2  H    1.072824   0.000000
     3  H    1.070961   1.748333   0.000000
     4  H    1.072760   1.748113   1.755143   0.000000
     5  C    3.318863   3.227697   3.170184   4.384818   0.000000
     6  H    3.908608   3.854055   3.478852   4.964201   1.070272
     7  O    1.430431   2.055449   2.045404   2.061642   2.948774
     8  H    1.969050   2.308381   2.840926   2.332717   3.497728
     9  O    2.083051   1.886042   2.154396   3.146424   1.343360
    10  O    4.237093   4.162923   4.310022   5.240216   1.423153
    11  H    5.094389   4.942436   5.086587   6.123829   1.967834
                    6          7          8          9         10
     6  H    0.000000
     7  O    3.756727   0.000000
     8  H    4.429090   0.960493   0.000000
     9  O    2.098915   2.035378   2.569823   0.000000
    10  O    2.160371   3.437825   3.727351   2.398308   0.000000
    11  H    2.329751   4.382252   4.674539   3.133389   0.961086
                   11
    11  H    0.000000
 Stoichiometry    C2H6O3
 Framework group  C1[X(C2H6O3)]
 Deg. of freedom    27
 Full point group                 C1      NOp   1
 Largest Abelian subgroup         C1      NOp   1
 Largest concise Abelian subgroup C1      NOp   1
                         Standard orientation:                         
 ---------------------------------------------------------------------
 Center     Atomic      Atomic             Coordinates (Angstroms)
 Number     Number       Type             X           Y           Z
 ---------------------------------------------------------------------
      1          6           0        1.998734   -0.330933    0.007054
      2          1           0        1.706598   -0.756578    0.947497
      3          1           0        1.774148   -1.022587   -0.779160
      4          1           0        3.051915   -0.127723    0.025238
      5          6           0       -1.306374   -0.557153   -0.192793
      6          1           0       -1.687054   -1.372508   -0.772240
      7          8           0        1.269143    0.878575   -0.218597
      8          1           0        1.442059    1.492431    0.499615
      9          8           0       -0.050002   -0.588498    0.281720
     10          8           0       -2.142191    0.564519    0.069173
     11          1           0       -3.057424    0.278710    0.135121
 ---------------------------------------------------------------------
 Rotational constants (GHZ):     13.0289542      2.4995072      2.1842229
 Standard basis: 3-21G (6D, 7F)
 There are    57 symmetry adapted basis functions of A   symmetry.
 Integral buffers will be    131072 words long.
 Raffenetti 1 integral format.
 Two-electron integral symmetry is turned on.
    57 basis functions,    93 primitive gaussians,    57 cartesian basis functions
    21 alpha electrons       21 beta electrons
       nuclear repulsion energy       184.0608595651 Hartrees.
 NAtoms=   11 NActive=   11 NUniq=   11 SFac= 7.50D-01 NAtFMM=   80 NAOKFM=F Big=F
 One-electron integrals computed using PRISM.
 NBasis=    57 RedAO= T  NBF=    57
 NBsUse=    57 1.00D-06 NBFU=    57
 Initial guess read from the read-write file.
 B after Tr=     0.000000    0.000000    0.000000
         Rot=    1.000000    0.000000    0.000000    0.000000 Ang=   0.00 deg.
 Initial guess orbital symmetries:
       Occupied  (A) (A) (A) (A) (A) (A) (A) (A) (A) (A) (A) (A)
                 (A) (A) (A) (A) (A) (A) (A) (A) (A)
       Virtual   (A) (A) (A) (A) (A) (A) (A) (A) (A) (A) (A) (A)
                 (A) (A) (A) (A) (A) (A) (A) (A) (A) (A) (A) (A)
                 (A) (A) (A) (A) (A) (A) (A) (A) (A) (A) (A) (A)
 Harris functional with IExCor=  205 diagonalized for initial guess.
 ExpMin= 1.83D-01 ExpMax= 3.22D+02 ExpMxC= 3.22D+02 IAcc=1 IRadAn=         1 AccDes= 0.00D+00
 HarFok:  IExCor=  205 AccDes= 0.00D+00 IRadAn=         1 IDoV= 1
 ScaDFX=  1.000000  1.000000  1.000000  1.000000
 FoFCou: FMM=F IPFlag=           0 FMFlag=      100000 FMFlg1=           0
         NFxFlg=           0 DoJE=T BraDBF=F KetDBF=T FulRan=T
         Omega=  0.000000  0.000000  1.000000  0.000000  0.000000 ICntrl=     500 IOpCl=  0
         NMat0=    1 NMatS0=    1 NMatT0=    0 NMatD0=    1 NMtDS0=    0 NMtDT0=    0
         I1Cent=           4 NGrid=           0.
 Petite list used in FoFCou.
 Requested convergence on RMS density matrix=1.00D-08 within 128 cycles.
 Requested convergence on MAX density matrix=1.00D-06.
 Requested convergence on             energy=1.00D-06.
 No special actions if energy rises.
 Keep R1 ints in memory in canonical form, NReq=2195842.
 SCF Done:  E(RHF) =  -301.989289652     A.U. after   15 cycles
             Convg  =    0.3747D-08             -V/T =  2.0033
 Calling FoFJK, ICntrl=      2127 FMM=F ISym2X=0 I1Cent= 0 IOpClX= 0 NMat=1 NMatS=1 NMatT=0.
 ***** Axes restored to original set *****
 -------------------------------------------------------------------
 Center     Atomic                   Forces (Hartrees/Bohr)
 Number     Number              X              Y              Z
 -------------------------------------------------------------------
      1        6          -0.036142624   -0.001319433    0.009105971
      2        1          -0.012127455    0.008733146    0.000425217
      3        1          -0.002538357    0.000084932   -0.002116540
      4        1          -0.014203705    0.000279573   -0.003526768
      5        6          -0.149552855   -0.000178494    0.083534603
      6        1           0.005366509   -0.005846711   -0.004947228
      7        8          -0.043439954   -0.030381806   -0.023750306
      8        1           0.000281893   -0.003289122    0.004613793
      9        8           0.268449551   -0.016526396   -0.047315808
     10        8          -0.025517702    0.052773075   -0.014246442
     11        1           0.009424699   -0.004328763   -0.001776491
 -------------------------------------------------------------------
 Cartesian Forces:  Max     0.268449551 RMS     0.058518188

 GradGradGradGradGradGradGradGradGradGradGradGradGradGradGradGradGradGrad
 Berny optimization.
 Using GEDIIS/GDIIS optimizer.
 Internal  Forces:  Max     0.177176605 RMS     0.028292071
 Search for a local minimum.
 Step number   2 out of a maximum of   60
 All quantities printed in internal units (Hartrees-Bohrs-Radians)
 Mixed Optimization -- RFO/linear search
 Update second derivatives using D2CorX and points    1    2
 DE= -3.89D-02 DEPred=-3.99D-02 R= 9.77D-01
 SS=  1.41D+00  RLast= 2.99D-01 DXNew= 5.0454D-01 8.9708D-01
 Trust test= 9.77D-01 RLast= 2.99D-01 DXMaxT set to 5.05D-01
 Use linear search instead of GDIIS.
 Linear search step of   0.568 exceeds DXMaxT=   0.505 but not scaled.
 Quartic linear search produced a step of  1.89881.
 Iteration  1 RMS(Cart)=  0.01216431 RMS(Int)=  0.07323156
 Iteration  2 RMS(Cart)=  0.00296039 RMS(Int)=  0.07155910
 Iteration  3 RMS(Cart)=  0.00277532 RMS(Int)=  0.06999307
 Iteration  4 RMS(Cart)=  0.00260605 RMS(Int)=  0.06852387
 Iteration  5 RMS(Cart)=  0.00245462 RMS(Int)=  0.06714105
 Iteration  6 RMS(Cart)=  0.00231839 RMS(Int)=  0.06583573
 Iteration  7 RMS(Cart)=  0.00219521 RMS(Int)=  0.06460033
 Iteration  8 RMS(Cart)=  0.00208332 RMS(Int)=  0.06342832
 Iteration  9 RMS(Cart)=  0.00198124 RMS(Int)=  0.06231404
 Iteration 10 RMS(Cart)=  0.00188777 RMS(Int)=  0.06125255
 Iteration 11 RMS(Cart)=  0.00180186 RMS(Int)=  0.06023950
 Iteration 12 RMS(Cart)=  0.00172264 RMS(Int)=  0.05927107
 Iteration 13 RMS(Cart)=  0.00164936 RMS(Int)=  0.05834388
 Iteration 14 RMS(Cart)=  0.00158137 RMS(Int)=  0.05745491
 Iteration 15 RMS(Cart)=  0.00151811 RMS(Int)=  0.05660148
 Iteration 16 RMS(Cart)=  0.00145910 RMS(Int)=  0.05578118
 Iteration 17 RMS(Cart)=  0.00140390 RMS(Int)=  0.05499185
 Iteration 18 RMS(Cart)=  0.00135215 RMS(Int)=  0.05423153
 Iteration 19 RMS(Cart)=  0.00130351 RMS(Int)=  0.05349848
 Iteration 20 RMS(Cart)=  0.00125767 RMS(Int)=  0.05279110
 Iteration 21 RMS(Cart)=  0.00121436 RMS(Int)=  0.05210796
 Iteration 22 RMS(Cart)=  0.00117335 RMS(Int)=  0.05144775
 Iteration 23 RMS(Cart)=  0.00113439 RMS(Int)=  0.05080932
 Iteration 24 RMS(Cart)=  0.00109728 RMS(Int)=  0.05019158
 Iteration 25 RMS(Cart)=  0.00106181 RMS(Int)=  0.04959361
 Iteration 26 RMS(Cart)=  0.00102776 RMS(Int)=  0.04901456
 Iteration 27 RMS(Cart)=  0.00099492 RMS(Int)=  0.04845368
 Iteration 28 RMS(Cart)=  0.00096304 RMS(Int)=  0.04791034
 Iteration 29 RMS(Cart)=  0.00093182 RMS(Int)=  0.04738401
 Iteration 30 RMS(Cart)=  0.00089455 RMS(Int)=  0.04687815
 Iteration 31 RMS(Cart)=  0.00085675 RMS(Int)=  0.04639256
 Iteration 32 RMS(Cart)=  0.00081826 RMS(Int)=  0.04592643
 Iteration 33 RMS(Cart)=  0.00077650 RMS(Int)=  0.04547737
 Iteration 34 RMS(Cart)=  0.00072192 RMS(Int)=  0.04501545
 Iteration 35 RMS(Cart)=  0.00018266 RMS(Int)=  0.62862000
 Iteration 36 RMS(Cart)=  0.02184632 RMS(Int)=  0.62303158
 Iteration 37 RMS(Cart)=  0.04186409 RMS(Int)=  0.59869901
 Iteration 38 RMS(Cart)=  0.00243851 RMS(Int)=  0.55966020
 Iteration 39 RMS(Cart)=  0.00238192 RMS(Int)=  0.52330498
 Iteration 40 RMS(Cart)=  0.00269687 RMS(Int)=  0.48362757
 Iteration 41 RMS(Cart)=  0.00272359 RMS(Int)=  0.44406483
 Iteration 42 RMS(Cart)=  0.00252882 RMS(Int)=  0.40544843
 Iteration 43 RMS(Cart)=  0.00224137 RMS(Int)=  0.36880436
 Iteration 44 RMS(Cart)=  0.00194500 RMS(Int)=  0.33645929
 Iteration 45 RMS(Cart)=  0.00150622 RMS(Int)=  0.31333847
 Iteration 46 RMS(Cart)=  0.00081956 RMS(Int)=  0.30272266
 Iteration 47 RMS(Cart)=  0.00043501 RMS(Int)=  0.29758317
 Iteration 48 RMS(Cart)=  0.00033627 RMS(Int)=  0.29368304
 Iteration 49 RMS(Cart)=  0.00029984 RMS(Int)=  0.29021043
 Iteration 50 RMS(Cart)=  0.00028186 RMS(Int)=  0.28693527
 Iteration 51 RMS(Cart)=  0.00027160 RMS(Int)=  0.28376028
 Iteration 52 RMS(Cart)=  0.00026533 RMS(Int)=  0.28063182
 Iteration 53 RMS(Cart)=  0.00026147 RMS(Int)=  0.27751196
 Iteration 54 RMS(Cart)=  0.00025925 RMS(Int)=  0.27436551
 Iteration 55 RMS(Cart)=  0.00025831 RMS(Int)=  0.27114925
 Iteration 56 RMS(Cart)=  0.00025844 RMS(Int)=  0.26779391
 Iteration 57 RMS(Cart)=  0.00026097 RMS(Int)=  0.26414954
 Iteration 58 RMS(Cart)=  0.00026496 RMS(Int)=  0.25974848
 Iteration 59 RMS(Cart)=  0.00027382 RMS(Int)=  0.24995424
 Iteration 60 RMS(Cart)=  0.00031602 RMS(Int)=  0.37870173
 New curvilinear step failed, DQL= 4.44D+00 SP=-9.80D-01.
 Iteration  1 RMS(Cart)=  0.01216431 RMS(Int)=  0.07323156
 Iteration  2 RMS(Cart)=  0.00296039 RMS(Int)=  0.07155910
 Iteration  3 RMS(Cart)=  0.00277532 RMS(Int)=  0.06999307
 Iteration  4 RMS(Cart)=  0.00260605 RMS(Int)=  0.06852387
 Iteration  5 RMS(Cart)=  0.00245462 RMS(Int)=  0.06714105
 Iteration  6 RMS(Cart)=  0.00231839 RMS(Int)=  0.06583573
 Iteration  7 RMS(Cart)=  0.00219521 RMS(Int)=  0.06460033
 Iteration  8 RMS(Cart)=  0.00208332 RMS(Int)=  0.06342832
 Iteration  9 RMS(Cart)=  0.00198124 RMS(Int)=  0.06231404
 Iteration 10 RMS(Cart)=  0.00188777 RMS(Int)=  0.06125255
 Iteration 11 RMS(Cart)=  0.00180186 RMS(Int)=  0.06023950
 Iteration 12 RMS(Cart)=  0.00172264 RMS(Int)=  0.05927107
 Iteration 13 RMS(Cart)=  0.00164936 RMS(Int)=  0.05834388
 Iteration 14 RMS(Cart)=  0.00158137 RMS(Int)=  0.05745491
 Iteration 15 RMS(Cart)=  0.00151811 RMS(Int)=  0.05660148
 Iteration 16 RMS(Cart)=  0.00145910 RMS(Int)=  0.05578118
 Iteration 17 RMS(Cart)=  0.00140390 RMS(Int)=  0.05499185
 Iteration 18 RMS(Cart)=  0.00135215 RMS(Int)=  0.05423153
 Iteration 19 RMS(Cart)=  0.00130351 RMS(Int)=  0.05349848
 Iteration 20 RMS(Cart)=  0.00125767 RMS(Int)=  0.05279110
 Iteration 21 RMS(Cart)=  0.00121436 RMS(Int)=  0.05210796
 Iteration 22 RMS(Cart)=  0.00117335 RMS(Int)=  0.05144775
 Iteration 23 RMS(Cart)=  0.00113439 RMS(Int)=  0.05080932
 Iteration 24 RMS(Cart)=  0.00109728 RMS(Int)=  0.05019158
 Iteration 25 RMS(Cart)=  0.00106181 RMS(Int)=  0.04959361
 Iteration 26 RMS(Cart)=  0.00102776 RMS(Int)=  0.04901456
 Iteration 27 RMS(Cart)=  0.00099492 RMS(Int)=  0.04845368
 Iteration 28 RMS(Cart)=  0.00096304 RMS(Int)=  0.04791034
 Iteration 29 RMS(Cart)=  0.00093182 RMS(Int)=  0.04738401
 Iteration 30 RMS(Cart)=  0.00089455 RMS(Int)=  0.04687815
 Iteration 31 RMS(Cart)=  0.00085675 RMS(Int)=  0.04639256
 Iteration 32 RMS(Cart)=  0.00081826 RMS(Int)=  0.04592643
 Iteration 33 RMS(Cart)=  0.00077650 RMS(Int)=  0.04547737
 Iteration 34 RMS(Cart)=  0.00072192 RMS(Int)=  0.04501545
 Iteration 35 RMS(Cart)=  0.00018266 RMS(Int)=  0.62862000
 Iteration 36 RMS(Cart)=  0.02184632 RMS(Int)=  0.62303158
 Iteration 37 RMS(Cart)=  0.04186409 RMS(Int)=  0.59869901
 Iteration 38 RMS(Cart)=  0.00243851 RMS(Int)=  0.55966020
 Iteration 39 RMS(Cart)=  0.00238192 RMS(Int)=  0.52330498
 Iteration 40 RMS(Cart)=  0.00269687 RMS(Int)=  0.48362757
 Iteration 41 RMS(Cart)=  0.00272359 RMS(Int)=  0.44406483
 Iteration 42 RMS(Cart)=  0.00252882 RMS(Int)=  0.40544843
 Iteration 43 RMS(Cart)=  0.00224137 RMS(Int)=  0.36880436
 Iteration 44 RMS(Cart)=  0.00194500 RMS(Int)=  0.33645929
 Iteration 45 RMS(Cart)=  0.00150622 RMS(Int)=  0.31333847
 Iteration 46 RMS(Cart)=  0.00081956 RMS(Int)=  0.30272266
 Iteration 47 RMS(Cart)=  0.00043501 RMS(Int)=  0.29758317
 Iteration 48 RMS(Cart)=  0.00033627 RMS(Int)=  0.29368304
 Iteration 49 RMS(Cart)=  0.00029984 RMS(Int)=  0.29021043
 Iteration 50 RMS(Cart)=  0.00028186 RMS(Int)=  0.28693527
 Iteration 51 RMS(Cart)=  0.00027160 RMS(Int)=  0.28376028
 Iteration 52 RMS(Cart)=  0.00026533 RMS(Int)=  0.28063182
 Iteration 53 RMS(Cart)=  0.00026147 RMS(Int)=  0.27751196
 Iteration 54 RMS(Cart)=  0.00025925 RMS(Int)=  0.27436551
 Iteration 55 RMS(Cart)=  0.00025831 RMS(Int)=  0.27114925
 Iteration 56 RMS(Cart)=  0.00025844 RMS(Int)=  0.26779391
 Iteration 57 RMS(Cart)=  0.00026097 RMS(Int)=  0.26414954
 Iteration 58 RMS(Cart)=  0.00026496 RMS(Int)=  0.25974848
 Iteration 59 RMS(Cart)=  0.00027382 RMS(Int)=  0.24995424
 Iteration 60 RMS(Cart)=  0.00031602 RMS(Int)=  0.37870173
 New curvilinear step failed, DQL= 4.44D+00 SP=-9.80D-01.
 Iteration  1 RMS(Cart)=  0.01216431 RMS(Int)=  0.07323156
 Iteration  2 RMS(Cart)=  0.00296039 RMS(Int)=  0.07155910
 Iteration  3 RMS(Cart)=  0.00277532 RMS(Int)=  0.06999307
 Iteration  4 RMS(Cart)=  0.00260605 RMS(Int)=  0.06852387
 Iteration  5 RMS(Cart)=  0.00245462 RMS(Int)=  0.06714105
 Iteration  6 RMS(Cart)=  0.00231839 RMS(Int)=  0.06583573
 Iteration  7 RMS(Cart)=  0.00219521 RMS(Int)=  0.06460033
 Iteration  8 RMS(Cart)=  0.00208332 RMS(Int)=  0.06342832
 Iteration  9 RMS(Cart)=  0.00198124 RMS(Int)=  0.06231404
 Iteration 10 RMS(Cart)=  0.00188777 RMS(Int)=  0.06125255
 Iteration 11 RMS(Cart)=  0.00180186 RMS(Int)=  0.06023950
 Iteration 12 RMS(Cart)=  0.00172264 RMS(Int)=  0.05927107
 Iteration 13 RMS(Cart)=  0.00164936 RMS(Int)=  0.05834388
 Iteration 14 RMS(Cart)=  0.00158137 RMS(Int)=  0.05745491
 Iteration 15 RMS(Cart)=  0.00151811 RMS(Int)=  0.05660148
 Iteration 16 RMS(Cart)=  0.00145910 RMS(Int)=  0.05578118
 Iteration 17 RMS(Cart)=  0.00140390 RMS(Int)=  0.05499185
 Iteration 18 RMS(Cart)=  0.00135215 RMS(Int)=  0.05423153
 Iteration 19 RMS(Cart)=  0.00130351 RMS(Int)=  0.05349848
 Iteration 20 RMS(Cart)=  0.00125767 RMS(Int)=  0.05279110
 Iteration 21 RMS(Cart)=  0.00121436 RMS(Int)=  0.05210796
 Iteration 22 RMS(Cart)=  0.00117335 RMS(Int)=  0.05144775
 Iteration 23 RMS(Cart)=  0.00113439 RMS(Int)=  0.05080932
 Iteration 24 RMS(Cart)=  0.00109728 RMS(Int)=  0.05019158
 Iteration 25 RMS(Cart)=  0.00106181 RMS(Int)=  0.04959361
 Iteration 26 RMS(Cart)=  0.00102776 RMS(Int)=  0.04901456
 Iteration 27 RMS(Cart)=  0.00099492 RMS(Int)=  0.04845368
 Iteration 28 RMS(Cart)=  0.00096304 RMS(Int)=  0.04791034
 Iteration 29 RMS(Cart)=  0.00093182 RMS(Int)=  0.04738401
 Iteration 30 RMS(Cart)=  0.00089455 RMS(Int)=  0.04687815
 Iteration 31 RMS(Cart)=  0.00085675 RMS(Int)=  0.04639256
 Iteration 32 RMS(Cart)=  0.00081826 RMS(Int)=  0.04592643
 Iteration 33 RMS(Cart)=  0.00077650 RMS(Int)=  0.04547737
 Iteration 34 RMS(Cart)=  0.00072192 RMS(Int)=  0.04501545
 Iteration 35 RMS(Cart)=  0.00018266 RMS(Int)=  0.62862000
 Iteration 36 RMS(Cart)=  0.02184632 RMS(Int)=  0.62303158
 Iteration 37 RMS(Cart)=  0.04186409 RMS(Int)=  0.59869901
 Iteration 38 RMS(Cart)=  0.00243851 RMS(Int)=  0.55966020
 Iteration 39 RMS(Cart)=  0.00238192 RMS(Int)=  0.52330498
 Iteration 40 RMS(Cart)=  0.00269687 RMS(Int)=  0.48362757
 Iteration 41 RMS(Cart)=  0.00272359 RMS(Int)=  0.44406483
 Iteration 42 RMS(Cart)=  0.00252882 RMS(Int)=  0.40544843
 Iteration 43 RMS(Cart)=  0.00224137 RMS(Int)=  0.36880436
 Iteration 44 RMS(Cart)=  0.00194500 RMS(Int)=  0.33645929
 Iteration 45 RMS(Cart)=  0.00150622 RMS(Int)=  0.31333847
 Iteration 46 RMS(Cart)=  0.00081956 RMS(Int)=  0.30272266
 Iteration 47 RMS(Cart)=  0.00043501 RMS(Int)=  0.29758317
 Iteration 48 RMS(Cart)=  0.00033627 RMS(Int)=  0.29368304
 Iteration 49 RMS(Cart)=  0.00029984 RMS(Int)=  0.29021043
 Iteration 50 RMS(Cart)=  0.00028186 RMS(Int)=  0.28693527
 Iteration 51 RMS(Cart)=  0.00027160 RMS(Int)=  0.28376028
 Iteration 52 RMS(Cart)=  0.00026533 RMS(Int)=  0.28063182
 Iteration 53 RMS(Cart)=  0.00026147 RMS(Int)=  0.27751196
 Iteration 54 RMS(Cart)=  0.00025925 RMS(Int)=  0.27436551
 Iteration 55 RMS(Cart)=  0.00025831 RMS(Int)=  0.27114925
 Iteration 56 RMS(Cart)=  0.00025844 RMS(Int)=  0.26779391
 Iteration 57 RMS(Cart)=  0.00026097 RMS(Int)=  0.26414954
 Iteration 58 RMS(Cart)=  0.00026496 RMS(Int)=  0.25974848
 Iteration 59 RMS(Cart)=  0.00027382 RMS(Int)=  0.24995424
 Iteration 60 RMS(Cart)=  0.00031602 RMS(Int)=  0.37870173
 New curvilinear step failed, DQL= 4.44D+00 SP=-9.80D-01.
 Iteration  1 RMS(Cart)=  0.01216431 RMS(Int)=  0.07323156
 Iteration  2 RMS(Cart)=  0.00296039 RMS(Int)=  0.07155910
 Iteration  3 RMS(Cart)=  0.00277532 RMS(Int)=  0.06999307
 Iteration  4 RMS(Cart)=  0.00260605 RMS(Int)=  0.06852387
 Iteration  5 RMS(Cart)=  0.00245462 RMS(Int)=  0.06714105
 Iteration  6 RMS(Cart)=  0.00231839 RMS(Int)=  0.06583573
 Iteration  7 RMS(Cart)=  0.00219521 RMS(Int)=  0.06460033
 Iteration  8 RMS(Cart)=  0.00208332 RMS(Int)=  0.06342832
 Iteration  9 RMS(Cart)=  0.00198124 RMS(Int)=  0.06231404
 Iteration 10 RMS(Cart)=  0.00188777 RMS(Int)=  0.06125255
 Iteration 11 RMS(Cart)=  0.00180186 RMS(Int)=  0.06023950
 Iteration 12 RMS(Cart)=  0.00172264 RMS(Int)=  0.05927107
 Iteration 13 RMS(Cart)=  0.00164936 RMS(Int)=  0.05834388
 Iteration 14 RMS(Cart)=  0.00158137 RMS(Int)=  0.05745491
 Iteration 15 RMS(Cart)=  0.00151811 RMS(Int)=  0.05660148
 Iteration 16 RMS(Cart)=  0.00145910 RMS(Int)=  0.05578118
 Iteration 17 RMS(Cart)=  0.00140390 RMS(Int)=  0.05499185
 Iteration 18 RMS(Cart)=  0.00135215 RMS(Int)=  0.05423153
 Iteration 19 RMS(Cart)=  0.00130351 RMS(Int)=  0.05349848
 Iteration 20 RMS(Cart)=  0.00125767 RMS(Int)=  0.05279110
 Iteration 21 RMS(Cart)=  0.00121436 RMS(Int)=  0.05210796
 Iteration 22 RMS(Cart)=  0.00117335 RMS(Int)=  0.05144775
 Iteration 23 RMS(Cart)=  0.00113439 RMS(Int)=  0.05080932
 Iteration 24 RMS(Cart)=  0.00109728 RMS(Int)=  0.05019158
 Iteration 25 RMS(Cart)=  0.00106181 RMS(Int)=  0.04959361
 Iteration 26 RMS(Cart)=  0.00102776 RMS(Int)=  0.04901456
 Iteration 27 RMS(Cart)=  0.00099492 RMS(Int)=  0.04845368
 Iteration 28 RMS(Cart)=  0.00096304 RMS(Int)=  0.04791034
 Iteration 29 RMS(Cart)=  0.00093182 RMS(Int)=  0.04738401
 Iteration 30 RMS(Cart)=  0.00089455 RMS(Int)=  0.04687815
 Iteration 31 RMS(Cart)=  0.00085675 RMS(Int)=  0.04639256
 Iteration 32 RMS(Cart)=  0.00081826 RMS(Int)=  0.04592643
 Iteration 33 RMS(Cart)=  0.00077650 RMS(Int)=  0.04547737
 Iteration 34 RMS(Cart)=  0.00072192 RMS(Int)=  0.04501545
 Iteration 35 RMS(Cart)=  0.00018266 RMS(Int)=  0.62862000
 Iteration 36 RMS(Cart)=  0.02184632 RMS(Int)=  0.62303158
 Iteration 37 RMS(Cart)=  0.04186409 RMS(Int)=  0.59869901
 Iteration 38 RMS(Cart)=  0.00243851 RMS(Int)=  0.55966020
 Iteration 39 RMS(Cart)=  0.00238192 RMS(Int)=  0.52330498
 Iteration 40 RMS(Cart)=  0.00269687 RMS(Int)=  0.48362757
 Iteration 41 RMS(Cart)=  0.00272359 RMS(Int)=  0.44406483
 Iteration 42 RMS(Cart)=  0.00252882 RMS(Int)=  0.40544843
 Iteration 43 RMS(Cart)=  0.00224137 RMS(Int)=  0.36880436
 Iteration 44 RMS(Cart)=  0.00194500 RMS(Int)=  0.33645929
 Iteration 45 RMS(Cart)=  0.00150622 RMS(Int)=  0.31333847
 Iteration 46 RMS(Cart)=  0.00081956 RMS(Int)=  0.30272266
 Iteration 47 RMS(Cart)=  0.00043501 RMS(Int)=  0.29758317
 Iteration 48 RMS(Cart)=  0.00033627 RMS(Int)=  0.29368304
 Iteration 49 RMS(Cart)=  0.00029984 RMS(Int)=  0.29021043
 Iteration 50 RMS(Cart)=  0.00028186 RMS(Int)=  0.28693527
 Iteration 51 RMS(Cart)=  0.00027160 RMS(Int)=  0.28376028
 Iteration 52 RMS(Cart)=  0.00026533 RMS(Int)=  0.28063182
 Iteration 53 RMS(Cart)=  0.00026147 RMS(Int)=  0.27751196
 Iteration 54 RMS(Cart)=  0.00025925 RMS(Int)=  0.27436551
 Iteration 55 RMS(Cart)=  0.00025831 RMS(Int)=  0.27114925
 Iteration 56 RMS(Cart)=  0.00025844 RMS(Int)=  0.26779391
 Iteration 57 RMS(Cart)=  0.00026097 RMS(Int)=  0.26414954
 Iteration 58 RMS(Cart)=  0.00026496 RMS(Int)=  0.25974848
 Iteration 59 RMS(Cart)=  0.00027382 RMS(Int)=  0.24995424
 Iteration 60 RMS(Cart)=  0.00031602 RMS(Int)=  0.37870173
 New curvilinear step failed, DQL= 4.44D+00 SP=-9.80D-01.
 Iteration  1 RMS(Cart)=  0.01216431 RMS(Int)=  0.07323156
 Iteration  2 RMS(Cart)=  0.00296039 RMS(Int)=  0.07155910
 Iteration  3 RMS(Cart)=  0.00277532 RMS(Int)=  0.06999307
 Iteration  4 RMS(Cart)=  0.00260605 RMS(Int)=  0.06852387
 Iteration  5 RMS(Cart)=  0.00245462 RMS(Int)=  0.06714105
 Iteration  6 RMS(Cart)=  0.00231839 RMS(Int)=  0.06583573
 Iteration  7 RMS(Cart)=  0.00219521 RMS(Int)=  0.06460033
 Iteration  8 RMS(Cart)=  0.00208332 RMS(Int)=  0.06342832
 Iteration  9 RMS(Cart)=  0.00198124 RMS(Int)=  0.06231404
 Iteration 10 RMS(Cart)=  0.00188777 RMS(Int)=  0.06125255
 Iteration 11 RMS(Cart)=  0.00180186 RMS(Int)=  0.06023950
 Iteration 12 RMS(Cart)=  0.00172264 RMS(Int)=  0.05927107
 Iteration 13 RMS(Cart)=  0.00164936 RMS(Int)=  0.05834388
 Iteration 14 RMS(Cart)=  0.00158137 RMS(Int)=  0.05745491
 Iteration 15 RMS(Cart)=  0.00151811 RMS(Int)=  0.05660148
 Iteration 16 RMS(Cart)=  0.00145910 RMS(Int)=  0.05578118
 Iteration 17 RMS(Cart)=  0.00140390 RMS(Int)=  0.05499185
 Iteration 18 RMS(Cart)=  0.00135215 RMS(Int)=  0.05423153
 Iteration 19 RMS(Cart)=  0.00130351 RMS(Int)=  0.05349848
 Iteration 20 RMS(Cart)=  0.00125767 RMS(Int)=  0.05279110
 Iteration 21 RMS(Cart)=  0.00121436 RMS(Int)=  0.05210796
 Iteration 22 RMS(Cart)=  0.00117335 RMS(Int)=  0.05144775
 Iteration 23 RMS(Cart)=  0.00113439 RMS(Int)=  0.05080932
 Iteration 24 RMS(Cart)=  0.00109728 RMS(Int)=  0.05019158
 Iteration 25 RMS(Cart)=  0.00106181 RMS(Int)=  0.04959361
 Iteration 26 RMS(Cart)=  0.00102776 RMS(Int)=  0.04901456
 Iteration 27 RMS(Cart)=  0.00099492 RMS(Int)=  0.04845368
 Iteration 28 RMS(Cart)=  0.00096304 RMS(Int)=  0.04791034
 Iteration 29 RMS(Cart)=  0.00093182 RMS(Int)=  0.04738401
 Iteration 30 RMS(Cart)=  0.00089455 RMS(Int)=  0.04687815
 Iteration 31 RMS(Cart)=  0.00085675 RMS(Int)=  0.04639256
 Iteration 32 RMS(Cart)=  0.00081826 RMS(Int)=  0.04592643
 Iteration 33 RMS(Cart)=  0.00077650 RMS(Int)=  0.04547737
 Iteration 34 RMS(Cart)=  0.00072192 RMS(Int)=  0.04501545
 Iteration 35 RMS(Cart)=  0.00018266 RMS(Int)=  0.62862000
 Iteration 36 RMS(Cart)=  0.02184632 RMS(Int)=  0.62303158
 Iteration 37 RMS(Cart)=  0.04186409 RMS(Int)=  0.59869901
 Iteration 38 RMS(Cart)=  0.00243851 RMS(Int)=  0.55966020
 Iteration 39 RMS(Cart)=  0.00238192 RMS(Int)=  0.52330498
 Iteration 40 RMS(Cart)=  0.00269687 RMS(Int)=  0.48362757
 Iteration 41 RMS(Cart)=  0.00272359 RMS(Int)=  0.44406483
 Iteration 42 RMS(Cart)=  0.00252882 RMS(Int)=  0.40544843
 Iteration 43 RMS(Cart)=  0.00224137 RMS(Int)=  0.36880436
 Iteration 44 RMS(Cart)=  0.00194500 RMS(Int)=  0.33645929
 Iteration 45 RMS(Cart)=  0.00150622 RMS(Int)=  0.31333847
 Iteration 46 RMS(Cart)=  0.00081956 RMS(Int)=  0.30272266
 Iteration 47 RMS(Cart)=  0.00043501 RMS(Int)=  0.29758317
 Iteration 48 RMS(Cart)=  0.00033627 RMS(Int)=  0.29368304
 Iteration 49 RMS(Cart)=  0.00029984 RMS(Int)=  0.29021043
 Iteration 50 RMS(Cart)=  0.00028186 RMS(Int)=  0.28693527
 Iteration 51 RMS(Cart)=  0.00027160 RMS(Int)=  0.28376028
 Iteration 52 RMS(Cart)=  0.00026533 RMS(Int)=  0.28063182
 Iteration 53 RMS(Cart)=  0.00026147 RMS(Int)=  0.27751196
 Iteration 54 RMS(Cart)=  0.00025925 RMS(Int)=  0.27436551
 Iteration 55 RMS(Cart)=  0.00025831 RMS(Int)=  0.27114925
 Iteration 56 RMS(Cart)=  0.00025844 RMS(Int)=  0.26779391
 Iteration 57 RMS(Cart)=  0.00026097 RMS(Int)=  0.26414954
 Iteration 58 RMS(Cart)=  0.00026496 RMS(Int)=  0.25974848
 Iteration 59 RMS(Cart)=  0.00027382 RMS(Int)=  0.24995424
 Iteration 60 RMS(Cart)=  0.00031602 RMS(Int)=  0.37870173
 New curvilinear step failed, DQL= 4.44D+00 SP=-9.80D-01.
 Iteration  1 RMS(Cart)=  0.01216431 RMS(Int)=  0.07323156
 Iteration  2 RMS(Cart)=  0.00296039 RMS(Int)=  0.07155910
 Iteration  3 RMS(Cart)=  0.00277532 RMS(Int)=  0.06999307
 Iteration  4 RMS(Cart)=  0.00260605 RMS(Int)=  0.06852387
 Iteration  5 RMS(Cart)=  0.00245462 RMS(Int)=  0.06714105
 Iteration  6 RMS(Cart)=  0.00231839 RMS(Int)=  0.06583573
 Iteration  7 RMS(Cart)=  0.00219521 RMS(Int)=  0.06460033
 Iteration  8 RMS(Cart)=  0.00208332 RMS(Int)=  0.06342832
 Iteration  9 RMS(Cart)=  0.00198124 RMS(Int)=  0.06231404
 Iteration 10 RMS(Cart)=  0.00188777 RMS(Int)=  0.06125255
 Iteration 11 RMS(Cart)=  0.00180186 RMS(Int)=  0.06023950
 Iteration 12 RMS(Cart)=  0.00172264 RMS(Int)=  0.05927107
 Iteration 13 RMS(Cart)=  0.00164936 RMS(Int)=  0.05834388
 Iteration 14 RMS(Cart)=  0.00158137 RMS(Int)=  0.05745491
 Iteration 15 RMS(Cart)=  0.00151811 RMS(Int)=  0.05660148
 Iteration 16 RMS(Cart)=  0.00145910 RMS(Int)=  0.05578118
 Iteration 17 RMS(Cart)=  0.00140390 RMS(Int)=  0.05499185
 Iteration 18 RMS(Cart)=  0.00135215 RMS(Int)=  0.05423153
 Iteration 19 RMS(Cart)=  0.00130351 RMS(Int)=  0.05349848
 Iteration 20 RMS(Cart)=  0.00125767 RMS(Int)=  0.05279110
 Iteration 21 RMS(Cart)=  0.00121436 RMS(Int)=  0.05210796
 Iteration 22 RMS(Cart)=  0.00117335 RMS(Int)=  0.05144775
 Iteration 23 RMS(Cart)=  0.00113439 RMS(Int)=  0.05080932
 Iteration 24 RMS(Cart)=  0.00109728 RMS(Int)=  0.05019158
 Iteration 25 RMS(Cart)=  0.00106181 RMS(Int)=  0.04959361
 Iteration 26 RMS(Cart)=  0.00102776 RMS(Int)=  0.04901456
 Iteration 27 RMS(Cart)=  0.00099492 RMS(Int)=  0.04845368
 Iteration 28 RMS(Cart)=  0.00096304 RMS(Int)=  0.04791034
 Iteration 29 RMS(Cart)=  0.00093182 RMS(Int)=  0.04738401
 Iteration 30 RMS(Cart)=  0.00089455 RMS(Int)=  0.04687815
 Iteration 31 RMS(Cart)=  0.00085675 RMS(Int)=  0.04639256
 Iteration 32 RMS(Cart)=  0.00081826 RMS(Int)=  0.04592643
 Iteration 33 RMS(Cart)=  0.00077650 RMS(Int)=  0.04547737
 Iteration 34 RMS(Cart)=  0.00072192 RMS(Int)=  0.04501545
 Iteration 35 RMS(Cart)=  0.00018266 RMS(Int)=  0.62862000
 Iteration 36 RMS(Cart)=  0.02184632 RMS(Int)=  0.62303158
 Iteration 37 RMS(Cart)=  0.04186409 RMS(Int)=  0.59869901
 Iteration 38 RMS(Cart)=  0.00243851 RMS(Int)=  0.55966020
 Iteration 39 RMS(Cart)=  0.00238192 RMS(Int)=  0.52330498
 Iteration 40 RMS(Cart)=  0.00269687 RMS(Int)=  0.48362757
 Iteration 41 RMS(Cart)=  0.00272359 RMS(Int)=  0.44406483
 Iteration 42 RMS(Cart)=  0.00252882 RMS(Int)=  0.40544843
 Iteration 43 RMS(Cart)=  0.00224137 RMS(Int)=  0.36880436
 Iteration 44 RMS(Cart)=  0.00194500 RMS(Int)=  0.33645929
 Iteration 45 RMS(Cart)=  0.00150622 RMS(Int)=  0.31333847
 Iteration 46 RMS(Cart)=  0.00081956 RMS(Int)=  0.30272266
 Iteration 47 RMS(Cart)=  0.00043501 RMS(Int)=  0.29758317
 Iteration 48 RMS(Cart)=  0.00033627 RMS(Int)=  0.29368304
 Iteration 49 RMS(Cart)=  0.00029984 RMS(Int)=  0.29021043
 Iteration 50 RMS(Cart)=  0.00028186 RMS(Int)=  0.28693527
 Iteration 51 RMS(Cart)=  0.00027160 RMS(Int)=  0.28376028
 Iteration 52 RMS(Cart)=  0.00026533 RMS(Int)=  0.28063182
 Iteration 53 RMS(Cart)=  0.00026147 RMS(Int)=  0.27751196
 Iteration 54 RMS(Cart)=  0.00025925 RMS(Int)=  0.27436551
 Iteration 55 RMS(Cart)=  0.00025831 RMS(Int)=  0.27114925
 Iteration 56 RMS(Cart)=  0.00025844 RMS(Int)=  0.26779391
 Iteration 57 RMS(Cart)=  0.00026097 RMS(Int)=  0.26414954
 Iteration 58 RMS(Cart)=  0.00026496 RMS(Int)=  0.25974848
 Iteration 59 RMS(Cart)=  0.00027382 RMS(Int)=  0.24995424
 Iteration 60 RMS(Cart)=  0.00031602 RMS(Int)=  0.37870173
 New curvilinear step failed, DQL= 4.44D+00 SP=-9.80D-01.
 Iteration  1 RMS(Cart)=  0.01216431 RMS(Int)=  0.07323156
 Iteration  2 RMS(Cart)=  0.00296039 RMS(Int)=  0.07155910
 Iteration  3 RMS(Cart)=  0.00277532 RMS(Int)=  0.06999307
 Iteration  4 RMS(Cart)=  0.00260605 RMS(Int)=  0.06852387
 Iteration  5 RMS(Cart)=  0.00245462 RMS(Int)=  0.06714105
 Iteration  6 RMS(Cart)=  0.00231839 RMS(Int)=  0.06583573
 Iteration  7 RMS(Cart)=  0.00219521 RMS(Int)=  0.06460033
 Iteration  8 RMS(Cart)=  0.00208332 RMS(Int)=  0.06342832
 Iteration  9 RMS(Cart)=  0.00198124 RMS(Int)=  0.06231404
 Iteration 10 RMS(Cart)=  0.00188777 RMS(Int)=  0.06125255
 Iteration 11 RMS(Cart)=  0.00180186 RMS(Int)=  0.06023950
 Iteration 12 RMS(Cart)=  0.00172264 RMS(Int)=  0.05927107
 Iteration 13 RMS(Cart)=  0.00164936 RMS(Int)=  0.05834388
 Iteration 14 RMS(Cart)=  0.00158137 RMS(Int)=  0.05745491
 Iteration 15 RMS(Cart)=  0.00151811 RMS(Int)=  0.05660148
 Iteration 16 RMS(Cart)=  0.00145910 RMS(Int)=  0.05578118
 Iteration 17 RMS(Cart)=  0.00140390 RMS(Int)=  0.05499185
 Iteration 18 RMS(Cart)=  0.00135215 RMS(Int)=  0.05423153
 Iteration 19 RMS(Cart)=  0.00130351 RMS(Int)=  0.05349848
 Iteration 20 RMS(Cart)=  0.00125767 RMS(Int)=  0.05279110
 Iteration 21 RMS(Cart)=  0.00121436 RMS(Int)=  0.05210796
 Iteration 22 RMS(Cart)=  0.00117335 RMS(Int)=  0.05144775
 Iteration 23 RMS(Cart)=  0.00113439 RMS(Int)=  0.05080932
 Iteration 24 RMS(Cart)=  0.00109728 RMS(Int)=  0.05019158
 Iteration 25 RMS(Cart)=  0.00106181 RMS(Int)=  0.04959361
 Iteration 26 RMS(Cart)=  0.00102776 RMS(Int)=  0.04901456
 Iteration 27 RMS(Cart)=  0.00099492 RMS(Int)=  0.04845368
 Iteration 28 RMS(Cart)=  0.00096304 RMS(Int)=  0.04791034
 Iteration 29 RMS(Cart)=  0.00093182 RMS(Int)=  0.04738401
 Iteration 30 RMS(Cart)=  0.00089455 RMS(Int)=  0.04687815
 Iteration 31 RMS(Cart)=  0.00085675 RMS(Int)=  0.04639256
 Iteration 32 RMS(Cart)=  0.00081826 RMS(Int)=  0.04592643
 Iteration 33 RMS(Cart)=  0.00077650 RMS(Int)=  0.04547737
 Iteration 34 RMS(Cart)=  0.00072192 RMS(Int)=  0.04501545
 Iteration 35 RMS(Cart)=  0.00018266 RMS(Int)=  0.62862000
 Iteration 36 RMS(Cart)=  0.02184632 RMS(Int)=  0.62303158
 Iteration 37 RMS(Cart)=  0.04186409 RMS(Int)=  0.59869901
 Iteration 38 RMS(Cart)=  0.00243851 RMS(Int)=  0.55966020
 Iteration 39 RMS(Cart)=  0.00238192 RMS(Int)=  0.52330498
 Iteration 40 RMS(Cart)=  0.00269687 RMS(Int)=  0.48362757
 Iteration 41 RMS(Cart)=  0.00272359 RMS(Int)=  0.44406483
 Iteration 42 RMS(Cart)=  0.00252882 RMS(Int)=  0.40544843
 Iteration 43 RMS(Cart)=  0.00224137 RMS(Int)=  0.36880436
 Iteration 44 RMS(Cart)=  0.00194500 RMS(Int)=  0.33645929
 Iteration 45 RMS(Cart)=  0.00150622 RMS(Int)=  0.31333847
 Iteration 46 RMS(Cart)=  0.00081956 RMS(Int)=  0.30272266
 Iteration 47 RMS(Cart)=  0.00043501 RMS(Int)=  0.29758317
 Iteration 48 RMS(Cart)=  0.00033627 RMS(Int)=  0.29368304
 Iteration 49 RMS(Cart)=  0.00029984 RMS(Int)=  0.29021043
 Iteration 50 RMS(Cart)=  0.00028186 RMS(Int)=  0.28693527
 Iteration 51 RMS(Cart)=  0.00027160 RMS(Int)=  0.28376028
 Iteration 52 RMS(Cart)=  0.00026533 RMS(Int)=  0.28063182
 Iteration 53 RMS(Cart)=  0.00026147 RMS(Int)=  0.27751196
 Iteration 54 RMS(Cart)=  0.00025925 RMS(Int)=  0.27436551
 Iteration 55 RMS(Cart)=  0.00025831 RMS(Int)=  0.27114925
 Iteration 56 RMS(Cart)=  0.00025844 RMS(Int)=  0.26779391
 Iteration 57 RMS(Cart)=  0.00026097 RMS(Int)=  0.26414954
 Iteration 58 RMS(Cart)=  0.00026496 RMS(Int)=  0.25974848
 Iteration 59 RMS(Cart)=  0.00027382 RMS(Int)=  0.24995424
 Iteration 60 RMS(Cart)=  0.00031602 RMS(Int)=  0.37870173
 New curvilinear step failed, DQL= 4.44D+00 SP=-9.80D-01.
 Iteration  1 RMS(Cart)=  0.01216431 RMS(Int)=  0.07323156
 Iteration  2 RMS(Cart)=  0.00296039 RMS(Int)=  0.07155910
 Iteration  3 RMS(Cart)=  0.00277532 RMS(Int)=  0.06999307
 Iteration  4 RMS(Cart)=  0.00260605 RMS(Int)=  0.06852387
 Iteration  5 RMS(Cart)=  0.00245462 RMS(Int)=  0.06714105
 Iteration  6 RMS(Cart)=  0.00231839 RMS(Int)=  0.06583573
 Iteration  7 RMS(Cart)=  0.00219521 RMS(Int)=  0.06460033
 Iteration  8 RMS(Cart)=  0.00208332 RMS(Int)=  0.06342832
 Iteration  9 RMS(Cart)=  0.00198124 RMS(Int)=  0.06231404
 Iteration 10 RMS(Cart)=  0.00188777 RMS(Int)=  0.06125255
 Iteration 11 RMS(Cart)=  0.00180186 RMS(Int)=  0.06023950
 Iteration 12 RMS(Cart)=  0.00172264 RMS(Int)=  0.05927107
 Iteration 13 RMS(Cart)=  0.00164936 RMS(Int)=  0.05834388
 Iteration 14 RMS(Cart)=  0.00158137 RMS(Int)=  0.05745491
 Iteration 15 RMS(Cart)=  0.00151811 RMS(Int)=  0.05660148
 Iteration 16 RMS(Cart)=  0.00145910 RMS(Int)=  0.05578118
 Iteration 17 RMS(Cart)=  0.00140390 RMS(Int)=  0.05499185
 Iteration 18 RMS(Cart)=  0.00135215 RMS(Int)=  0.05423153
 Iteration 19 RMS(Cart)=  0.00130351 RMS(Int)=  0.05349848
 Iteration 20 RMS(Cart)=  0.00125767 RMS(Int)=  0.05279110
 Iteration 21 RMS(Cart)=  0.00121436 RMS(Int)=  0.05210796
 Iteration 22 RMS(Cart)=  0.00117335 RMS(Int)=  0.05144775
 Iteration 23 RMS(Cart)=  0.00113439 RMS(Int)=  0.05080932
 Iteration 24 RMS(Cart)=  0.00109728 RMS(Int)=  0.05019158
 Iteration 25 RMS(Cart)=  0.00106181 RMS(Int)=  0.04959361
 Iteration 26 RMS(Cart)=  0.00102776 RMS(Int)=  0.04901456
 Iteration 27 RMS(Cart)=  0.00099492 RMS(Int)=  0.04845368
 Iteration 28 RMS(Cart)=  0.00096304 RMS(Int)=  0.04791034
 Iteration 29 RMS(Cart)=  0.00093182 RMS(Int)=  0.04738401
 Iteration 30 RMS(Cart)=  0.00089455 RMS(Int)=  0.04687815
 Iteration 31 RMS(Cart)=  0.00085675 RMS(Int)=  0.04639256
 Iteration 32 RMS(Cart)=  0.00081826 RMS(Int)=  0.04592643
 Iteration 33 RMS(Cart)=  0.00077650 RMS(Int)=  0.04547737
 Iteration 34 RMS(Cart)=  0.00072192 RMS(Int)=  0.04501545
 Iteration 35 RMS(Cart)=  0.00018266 RMS(Int)=  0.62862000
 Iteration 36 RMS(Cart)=  0.02184632 RMS(Int)=  0.62303158
 Iteration 37 RMS(Cart)=  0.04186409 RMS(Int)=  0.59869901
 Iteration 38 RMS(Cart)=  0.00243851 RMS(Int)=  0.55966020
 Iteration 39 RMS(Cart)=  0.00238192 RMS(Int)=  0.52330498
 Iteration 40 RMS(Cart)=  0.00269687 RMS(Int)=  0.48362757
 Iteration 41 RMS(Cart)=  0.00272359 RMS(Int)=  0.44406483
 Iteration 42 RMS(Cart)=  0.00252882 RMS(Int)=  0.40544843
 Iteration 43 RMS(Cart)=  0.00224137 RMS(Int)=  0.36880436
 Iteration 44 RMS(Cart)=  0.00194500 RMS(Int)=  0.33645929
 Iteration 45 RMS(Cart)=  0.00150622 RMS(Int)=  0.31333847
 Iteration 46 RMS(Cart)=  0.00081956 RMS(Int)=  0.30272266
 Iteration 47 RMS(Cart)=  0.00043501 RMS(Int)=  0.29758317
 Iteration 48 RMS(Cart)=  0.00033627 RMS(Int)=  0.29368304
 Iteration 49 RMS(Cart)=  0.00029984 RMS(Int)=  0.29021043
 Iteration 50 RMS(Cart)=  0.00028186 RMS(Int)=  0.28693527
 Iteration 51 RMS(Cart)=  0.00027160 RMS(Int)=  0.28376028
 Iteration 52 RMS(Cart)=  0.00026533 RMS(Int)=  0.28063182
 Iteration 53 RMS(Cart)=  0.00026147 RMS(Int)=  0.27751196
 Iteration 54 RMS(Cart)=  0.00025925 RMS(Int)=  0.27436551
 Iteration 55 RMS(Cart)=  0.00025831 RMS(Int)=  0.27114925
 Iteration 56 RMS(Cart)=  0.00025844 RMS(Int)=  0.26779391
 Iteration 57 RMS(Cart)=  0.00026097 RMS(Int)=  0.26414954
 Iteration 58 RMS(Cart)=  0.00026496 RMS(Int)=  0.25974848
 Iteration 59 RMS(Cart)=  0.00027382 RMS(Int)=  0.24995424
 Iteration 60 RMS(Cart)=  0.00031602 RMS(Int)=  0.37870173
 New curvilinear step failed, DQL= 4.44D+00 SP=-9.80D-01.
 Iteration  1 RMS(Cart)=  0.01216431 RMS(Int)=  0.07323156
 Iteration  2 RMS(Cart)=  0.00296039 RMS(Int)=  0.07155910
 Iteration  3 RMS(Cart)=  0.00277532 RMS(Int)=  0.06999307
 Iteration  4 RMS(Cart)=  0.00260605 RMS(Int)=  0.06852387
 Iteration  5 RMS(Cart)=  0.00245462 RMS(Int)=  0.06714105
 Iteration  6 RMS(Cart)=  0.00231839 RMS(Int)=  0.06583573
 Iteration  7 RMS(Cart)=  0.00219521 RMS(Int)=  0.06460033
 Iteration  8 RMS(Cart)=  0.00208332 RMS(Int)=  0.06342832
 Iteration  9 RMS(Cart)=  0.00198124 RMS(Int)=  0.06231404
 Iteration 10 RMS(Cart)=  0.00188777 RMS(Int)=  0.06125255
 Iteration 11 RMS(Cart)=  0.00180186 RMS(Int)=  0.06023950
 Iteration 12 RMS(Cart)=  0.00172264 RMS(Int)=  0.05927107
 Iteration 13 RMS(Cart)=  0.00164936 RMS(Int)=  0.05834388
 Iteration 14 RMS(Cart)=  0.00158137 RMS(Int)=  0.05745491
 Iteration 15 RMS(Cart)=  0.00151811 RMS(Int)=  0.05660148
 Iteration 16 RMS(Cart)=  0.00145910 RMS(Int)=  0.05578118
 Iteration 17 RMS(Cart)=  0.00140390 RMS(Int)=  0.05499185
 Iteration 18 RMS(Cart)=  0.00135215 RMS(Int)=  0.05423153
 Iteration 19 RMS(Cart)=  0.00130351 RMS(Int)=  0.05349848
 Iteration 20 RMS(Cart)=  0.00125767 RMS(Int)=  0.05279110
 Iteration 21 RMS(Cart)=  0.00121436 RMS(Int)=  0.05210796
 Iteration 22 RMS(Cart)=  0.00117335 RMS(Int)=  0.05144775
 Iteration 23 RMS(Cart)=  0.00113439 RMS(Int)=  0.05080932
 Iteration 24 RMS(Cart)=  0.00109728 RMS(Int)=  0.05019158
 Iteration 25 RMS(Cart)=  0.00106181 RMS(Int)=  0.04959361
 Iteration 26 RMS(Cart)=  0.00102776 RMS(Int)=  0.04901456
 Iteration 27 RMS(Cart)=  0.00099492 RMS(Int)=  0.04845368
 Iteration 28 RMS(Cart)=  0.00096304 RMS(Int)=  0.04791034
 Iteration 29 RMS(Cart)=  0.00093182 RMS(Int)=  0.04738401
 Iteration 30 RMS(Cart)=  0.00089455 RMS(Int)=  0.04687815
 Iteration 31 RMS(Cart)=  0.00085675 RMS(Int)=  0.04639256
 Iteration 32 RMS(Cart)=  0.00081826 RMS(Int)=  0.04592643
 Iteration 33 RMS(Cart)=  0.00077650 RMS(Int)=  0.04547737
 Iteration 34 RMS(Cart)=  0.00072192 RMS(Int)=  0.04501545
 Iteration 35 RMS(Cart)=  0.00018266 RMS(Int)=  0.62862000
 Iteration 36 RMS(Cart)=  0.02184632 RMS(Int)=  0.62303158
 Iteration 37 RMS(Cart)=  0.04186409 RMS(Int)=  0.59869901
 Iteration 38 RMS(Cart)=  0.00243851 RMS(Int)=  0.55966020
 Iteration 39 RMS(Cart)=  0.00238192 RMS(Int)=  0.52330498
 Iteration 40 RMS(Cart)=  0.00269687 RMS(Int)=  0.48362757
 Iteration 41 RMS(Cart)=  0.00272359 RMS(Int)=  0.44406483
 Iteration 42 RMS(Cart)=  0.00252882 RMS(Int)=  0.40544843
 Iteration 43 RMS(Cart)=  0.00224137 RMS(Int)=  0.36880436
 Iteration 44 RMS(Cart)=  0.00194500 RMS(Int)=  0.33645929
 Iteration 45 RMS(Cart)=  0.00150622 RMS(Int)=  0.31333847
 Iteration 46 RMS(Cart)=  0.00081956 RMS(Int)=  0.30272266
 Iteration 47 RMS(Cart)=  0.00043501 RMS(Int)=  0.29758317
 Iteration 48 RMS(Cart)=  0.00033627 RMS(Int)=  0.29368304
 Iteration 49 RMS(Cart)=  0.00029984 RMS(Int)=  0.29021043
 Iteration 50 RMS(Cart)=  0.00028186 RMS(Int)=  0.28693527
 Iteration 51 RMS(Cart)=  0.00027160 RMS(Int)=  0.28376028
 Iteration 52 RMS(Cart)=  0.00026533 RMS(Int)=  0.28063182
 Iteration 53 RMS(Cart)=  0.00026147 RMS(Int)=  0.27751196
 Iteration 54 RMS(Cart)=  0.00025925 RMS(Int)=  0.27436551
 Iteration 55 RMS(Cart)=  0.00025831 RMS(Int)=  0.27114925
 Iteration 56 RMS(Cart)=  0.00025844 RMS(Int)=  0.26779391
 Iteration 57 RMS(Cart)=  0.00026097 RMS(Int)=  0.26414954
 Iteration 58 RMS(Cart)=  0.00026496 RMS(Int)=  0.25974848
 Iteration 59 RMS(Cart)=  0.00027382 RMS(Int)=  0.24995424
 Iteration 60 RMS(Cart)=  0.00031602 RMS(Int)=  0.37870173
 New curvilinear step failed, DQL= 4.44D+00 SP=-9.80D-01.
 Iteration  1 RMS(Cart)=  0.01216431 RMS(Int)=  0.07323156
 Iteration  2 RMS(Cart)=  0.00296039 RMS(Int)=  0.07155910
 Iteration  3 RMS(Cart)=  0.00277532 RMS(Int)=  0.06999307
 Iteration  4 RMS(Cart)=  0.00260605 RMS(Int)=  0.06852387
 Iteration  5 RMS(Cart)=  0.00245462 RMS(Int)=  0.06714105
 Iteration  6 RMS(Cart)=  0.00231839 RMS(Int)=  0.06583573
 Iteration  7 RMS(Cart)=  0.00219521 RMS(Int)=  0.06460033
 Iteration  8 RMS(Cart)=  0.00208332 RMS(Int)=  0.06342832
 Iteration  9 RMS(Cart)=  0.00198124 RMS(Int)=  0.06231404
 Iteration 10 RMS(Cart)=  0.00188777 RMS(Int)=  0.06125255
 Iteration 11 RMS(Cart)=  0.00180186 RMS(Int)=  0.06023950
 Iteration 12 RMS(Cart)=  0.00172264 RMS(Int)=  0.05927107
 Iteration 13 RMS(Cart)=  0.00164936 RMS(Int)=  0.05834388
 Iteration 14 RMS(Cart)=  0.00158137 RMS(Int)=  0.05745491
 Iteration 15 RMS(Cart)=  0.00151811 RMS(Int)=  0.05660148
 Iteration 16 RMS(Cart)=  0.00145910 RMS(Int)=  0.05578118
 Iteration 17 RMS(Cart)=  0.00140390 RMS(Int)=  0.05499185
 Iteration 18 RMS(Cart)=  0.00135215 RMS(Int)=  0.05423153
 Iteration 19 RMS(Cart)=  0.00130351 RMS(Int)=  0.05349848
 Iteration 20 RMS(Cart)=  0.00125767 RMS(Int)=  0.05279110
 Iteration 21 RMS(Cart)=  0.00121436 RMS(Int)=  0.05210796
 Iteration 22 RMS(Cart)=  0.00117335 RMS(Int)=  0.05144775
 Iteration 23 RMS(Cart)=  0.00113439 RMS(Int)=  0.05080932
 Iteration 24 RMS(Cart)=  0.00109728 RMS(Int)=  0.05019158
 Iteration 25 RMS(Cart)=  0.00106181 RMS(Int)=  0.04959361
 Iteration 26 RMS(Cart)=  0.00102776 RMS(Int)=  0.04901456
 Iteration 27 RMS(Cart)=  0.00099492 RMS(Int)=  0.04845368
 Iteration 28 RMS(Cart)=  0.00096304 RMS(Int)=  0.04791034
 Iteration 29 RMS(Cart)=  0.00093182 RMS(Int)=  0.04738401
 Iteration 30 RMS(Cart)=  0.00089455 RMS(Int)=  0.04687815
 Iteration 31 RMS(Cart)=  0.00085675 RMS(Int)=  0.04639256
 Iteration 32 RMS(Cart)=  0.00081826 RMS(Int)=  0.04592643
 Iteration 33 RMS(Cart)=  0.00077650 RMS(Int)=  0.04547737
 Iteration 34 RMS(Cart)=  0.00072192 RMS(Int)=  0.04501545
 Iteration 35 RMS(Cart)=  0.00018266 RMS(Int)=  0.62862000
 Iteration 36 RMS(Cart)=  0.02184632 RMS(Int)=  0.62303158
 Iteration 37 RMS(Cart)=  0.04186409 RMS(Int)=  0.59869901
 Iteration 38 RMS(Cart)=  0.00243851 RMS(Int)=  0.55966020
 Iteration 39 RMS(Cart)=  0.00238192 RMS(Int)=  0.52330498
 Iteration 40 RMS(Cart)=  0.00269687 RMS(Int)=  0.48362757
 Iteration 41 RMS(Cart)=  0.00272359 RMS(Int)=  0.44406483
 Iteration 42 RMS(Cart)=  0.00252882 RMS(Int)=  0.40544843
 Iteration 43 RMS(Cart)=  0.00224137 RMS(Int)=  0.36880436
 Iteration 44 RMS(Cart)=  0.00194500 RMS(Int)=  0.33645929
 Iteration 45 RMS(Cart)=  0.00150622 RMS(Int)=  0.31333847
 Iteration 46 RMS(Cart)=  0.00081956 RMS(Int)=  0.30272266
 Iteration 47 RMS(Cart)=  0.00043501 RMS(Int)=  0.29758317
 Iteration 48 RMS(Cart)=  0.00033627 RMS(Int)=  0.29368304
 Iteration 49 RMS(Cart)=  0.00029984 RMS(Int)=  0.29021043
 Iteration 50 RMS(Cart)=  0.00028186 RMS(Int)=  0.28693527
 Iteration 51 RMS(Cart)=  0.00027160 RMS(Int)=  0.28376028
 Iteration 52 RMS(Cart)=  0.00026533 RMS(Int)=  0.28063182
 Iteration 53 RMS(Cart)=  0.00026147 RMS(Int)=  0.27751196
 Iteration 54 RMS(Cart)=  0.00025925 RMS(Int)=  0.27436551
 Iteration 55 RMS(Cart)=  0.00025831 RMS(Int)=  0.27114925
 Iteration 56 RMS(Cart)=  0.00025844 RMS(Int)=  0.26779391
 Iteration 57 RMS(Cart)=  0.00026097 RMS(Int)=  0.26414954
 Iteration 58 RMS(Cart)=  0.00026496 RMS(Int)=  0.25974848
 Iteration 59 RMS(Cart)=  0.00027382 RMS(Int)=  0.24995424
 Iteration 60 RMS(Cart)=  0.00031602 RMS(Int)=  0.37870173
 New curvilinear step failed, DQL= 4.44D+00 SP=-9.80D-01.
 Iteration  1 RMS(Cart)=  0.13804215 RMS(Int)=  0.54119980
 Iteration  2 RMS(Cart)=  0.07813130 RMS(Int)=  0.51820018
 Iteration  3 RMS(Cart)=  0.06501079 RMS(Int)=  0.55538293
 Iteration  4 RMS(Cart)=  0.07149760 RMS(Int)=  0.55741645
 Iteration  5 RMS(Cart)=  0.06983969 RMS(Int)=  0.55334047
 Iteration  6 RMS(Cart)=  0.07031810 RMS(Int)=  0.57329710
 Iteration  7 RMS(Cart)=  0.07222868 RMS(Int)=  0.54722691
 Iteration  8 RMS(Cart)=  0.06926400 RMS(Int)=  0.58419072
 Iteration  9 RMS(Cart)=  0.07383996 RMS(Int)=  0.53752466
 Iteration 10 RMS(Cart)=  0.06794663 RMS(Int)=  0.59610496
 Iteration 11 RMS(Cart)=  0.07552964 RMS(Int)=  0.52331139
 Iteration 12 RMS(Cart)=  0.06614548 RMS(Int)=  0.61302723
 Iteration 13 RMS(Cart)=  0.07790412 RMS(Int)=  0.50360531
 Iteration 14 RMS(Cart)=  0.06377468 RMS(Int)=  0.63920726
 Iteration 15 RMS(Cart)=  0.08158267 RMS(Int)=  0.47872147
 Iteration 16 RMS(Cart)=  0.06105741 RMS(Int)=  0.58507047
 Iteration 17 RMS(Cart)=  0.08187443 RMS(Int)=  0.57420591
 Iteration 18 RMS(Cart)=  0.07265066 RMS(Int)=  0.58482750
 Iteration 19 RMS(Cart)=  0.07331920 RMS(Int)=  0.56390677
 Iteration 20 RMS(Cart)=  0.07199228 RMS(Int)=  0.59308319
 Iteration 21 RMS(Cart)=  0.07510485 RMS(Int)=  0.55470196
 Iteration 22 RMS(Cart)=  0.07049210 RMS(Int)=  0.60441577
 Iteration 23 RMS(Cart)=  0.07658823 RMS(Int)=  0.54654044
 Iteration 24 RMS(Cart)=  0.06959341 RMS(Int)=  0.62016070
 Iteration 25 RMS(Cart)=  0.07873489 RMS(Int)=  0.53800068
 Iteration 26 RMS(Cart)=  0.06892598 RMS(Int)=  0.62317571
 Iteration 27 RMS(Cart)=  0.09340825 RMS(Int)=  0.48540794
 Iteration 28 RMS(Cart)=  0.06226538 RMS(Int)=  0.60693564
 Iteration 29 RMS(Cart)=  0.08585119 RMS(Int)=  0.55371826
 Iteration 30 RMS(Cart)=  0.07027628 RMS(Int)=  0.61579658
 Iteration 31 RMS(Cart)=  0.07752363 RMS(Int)=  0.54290619
 Iteration 32 RMS(Cart)=  0.06978063 RMS(Int)=  0.62765160
 Iteration 33 RMS(Cart)=  0.09418540 RMS(Int)=  0.48288405
 Iteration 34 RMS(Cart)=  0.06198702 RMS(Int)=  0.60194348
 Iteration 35 RMS(Cart)=  0.08508252 RMS(Int)=  0.55744112
 Iteration 36 RMS(Cart)=  0.07062262 RMS(Int)=  0.60878409
 Iteration 37 RMS(Cart)=  0.07656071 RMS(Int)=  0.54680534
 Iteration 38 RMS(Cart)=  0.07008734 RMS(Int)=  0.63679298
 Iteration 39 RMS(Cart)=  0.09513957 RMS(Int)=  0.47387785
 Iteration 40 RMS(Cart)=  0.06118410 RMS(Int)=  0.58764542
 Iteration 41 RMS(Cart)=  0.08291528 RMS(Int)=  0.56782965
 Iteration 42 RMS(Cart)=  0.07160703 RMS(Int)=  0.58806673
 Iteration 43 RMS(Cart)=  0.07374496 RMS(Int)=  0.55968245
 Iteration 44 RMS(Cart)=  0.07134324 RMS(Int)=  0.59756158
 Iteration 45 RMS(Cart)=  0.07571276 RMS(Int)=  0.55115171
 Iteration 46 RMS(Cart)=  0.07006630 RMS(Int)=  0.61067753
 Iteration 47 RMS(Cart)=  0.07743829 RMS(Int)=  0.54288855
 Iteration 48 RMS(Cart)=  0.06926686 RMS(Int)=  0.63521597
 Iteration 49 RMS(Cart)=  0.09466296 RMS(Int)=  0.47322039
 Iteration 50 RMS(Cart)=  0.06117894 RMS(Int)=  0.58787815
 Iteration 51 RMS(Cart)=  0.08295572 RMS(Int)=  0.56712006
 Iteration 52 RMS(Cart)=  0.07149490 RMS(Int)=  0.58842544
 Iteration 53 RMS(Cart)=  0.07379849 RMS(Int)=  0.55921869
 Iteration 54 RMS(Cart)=  0.07127112 RMS(Int)=  0.59804895
 Iteration 55 RMS(Cart)=  0.07577864 RMS(Int)=  0.55077388
 Iteration 56 RMS(Cart)=  0.07002184 RMS(Int)=  0.61135033
 Iteration 57 RMS(Cart)=  0.07752984 RMS(Int)=  0.54251041
 Iteration 58 RMS(Cart)=  0.06923528 RMS(Int)=  0.63434791
 Iteration 59 RMS(Cart)=  0.09457002 RMS(Int)=  0.47403221
 Iteration 60 RMS(Cart)=  0.06124698 RMS(Int)=  0.58919597
 Iteration 61 RMS(Cart)=  0.08315436 RMS(Int)=  0.56610722
 Iteration 62 RMS(Cart)=  0.07139078 RMS(Int)=  0.59035537
 Iteration 63 RMS(Cart)=  0.07405929 RMS(Int)=  0.55790508
 Iteration 64 RMS(Cart)=  0.07112719 RMS(Int)=  0.60088616
 Iteration 65 RMS(Cart)=  0.07616130 RMS(Int)=  0.54908342
 Iteration 66 RMS(Cart)=  0.06986178 RMS(Int)=  0.61537806
 Iteration 67 RMS(Cart)=  0.07807729 RMS(Int)=  0.54047511
 Iteration 68 RMS(Cart)=  0.06909656 RMS(Int)=  0.62915105
 Iteration 69 RMS(Cart)=  0.09403700 RMS(Int)=  0.47920458
 Iteration 70 RMS(Cart)=  0.06169327 RMS(Int)=  0.59737252
 Iteration 71 RMS(Cart)=  0.08439170 RMS(Int)=  0.56013850
 Iteration 72 RMS(Cart)=  0.07081465 RMS(Int)=  0.60221882
 Iteration 73 RMS(Cart)=  0.07566818 RMS(Int)=  0.55040068
 Iteration 74 RMS(Cart)=  0.07037252 RMS(Int)=  0.61803504
 Iteration 75 RMS(Cart)=  0.07849267 RMS(Int)=  0.53989944
 Iteration 76 RMS(Cart)=  0.06915794 RMS(Int)=  0.62548201
 Iteration 77 RMS(Cart)=  0.09375713 RMS(Int)=  0.48364852
 Iteration 78 RMS(Cart)=  0.06208263 RMS(Int)=  0.60390376
 Iteration 79 RMS(Cart)=  0.08538597 RMS(Int)=  0.55582487
 Iteration 80 RMS(Cart)=  0.07045610 RMS(Int)=  0.61154240
 Iteration 81 RMS(Cart)=  0.07693969 RMS(Int)=  0.54518471
 Iteration 82 RMS(Cart)=  0.06994570 RMS(Int)=  0.63317628
 Iteration 83 RMS(Cart)=  0.09475424 RMS(Int)=  0.47728745
 Iteration 84 RMS(Cart)=  0.06147964 RMS(Int)=  0.59316965
 Iteration 85 RMS(Cart)=  0.08374939 RMS(Int)=  0.56363141
[...]
     Eigenvalues --- 1000.000001000.000001000.000001000.000001000.00000
     Eigenvalues --- 1000.000001000.000001000.000001000.000001000.00000
 En-DIIS/RFO-DIIS IScMMF=        0 using points:    52   51   50   49   48
 RFO step:  Lambda= 0.00000000D+00.
 DIIS coeffs:      1.07263     -0.02825     -0.12153      0.08145     -0.00429
 Iteration  1 RMS(Cart)=  0.00015040 RMS(Int)=  0.00000046
 Iteration  2 RMS(Cart)=  0.00000002 RMS(Int)=  0.00000046
 Variable       Old X    -DE/DX   Delta X   Delta X   Delta X     New X
                                  (DIIS)     (GDIIS)  (Total)
    R1        2.04372   0.00000   0.00000   0.00000   0.00000   2.04372
    R2        2.03854   0.00000   0.00001   0.00000   0.00001   2.03855
    R3        2.04708   0.00000   0.00000   0.00000   0.00000   2.04708
    R4        2.74007   0.00000   0.00000   0.00000   0.00001   2.74008
    R5        6.35599   0.00000   0.00006  -0.00030  -0.00024   6.35575
    R6        5.09121   0.00000   0.00016  -0.00032  -0.00016   5.09105
    R7        7.32172   0.00000   0.00018  -0.00036  -0.00018   7.32154
    R8        2.03435   0.00000   0.00000   0.00000   0.00000   2.03435
    R9        2.25776   0.00003   0.00002   0.00001   0.00003   2.25778
   R10        2.56492   0.00000   0.00000   0.00000   0.00000   2.56493
   R11        1.82673   0.00000   0.00000   0.00000   0.00000   1.82674
   R12        5.92946   0.00000  -0.00016  -0.00019  -0.00034   5.92912
   R13        1.82361   0.00000   0.00000   0.00000   0.00000   1.82361
    A1        1.90839   0.00000  -0.00002   0.00000  -0.00002   1.90837
    A2        1.91685   0.00000   0.00000   0.00001   0.00001   1.91686
    A3        1.93461   0.00000   0.00001   0.00001   0.00001   1.93463
    A4        1.89870   0.00000   0.00000   0.00001   0.00001   1.89871
    A5        1.85613   0.00000   0.00001  -0.00001   0.00000   1.85612
    A6        1.94765   0.00000   0.00000  -0.00001  -0.00001   1.94764
    A7        2.42159   0.00000  -0.00006   0.00003  -0.00003   2.42156
    A8        2.16437   0.00001   0.00000   0.00002   0.00002   2.16439
    A9        1.98692   0.00001   0.00003   0.00000   0.00003   1.98695
   A10        2.13162  -0.00001  -0.00003  -0.00002  -0.00005   2.13158
   A11        1.92035   0.00000   0.00000   0.00000  -0.00001   1.92034
   A12        1.40672   0.00000  -0.00003   0.00003   0.00000   1.40672
   A13        1.32115   0.00000   0.00007   0.00008   0.00015   1.32131
   A14        0.40792   0.00000  -0.00002   0.00003   0.00001   0.40793
   A15        1.60072   0.00000   0.00008   0.00009   0.00018   1.60090
   A16        0.71956   0.00000   0.00001   0.00003   0.00005   0.71961
   A17        1.25570   0.00000   0.00011   0.00007   0.00018   1.25587
   A18        0.55143   0.00000  -0.00002   0.00003   0.00001   0.55144
   A19        0.93253   0.00000   0.00004   0.00006   0.00010   0.93263
   A20        1.97330   0.00000   0.00003   0.00000   0.00003   1.97333
    D1        1.14731   0.00000   0.00008  -0.00002   0.00006   1.14736
    D2       -3.06324   0.00000   0.00007  -0.00003   0.00003  -3.06321
    D3       -0.99515   0.00000   0.00008  -0.00003   0.00004  -0.99511
    D4        2.18616   0.00000  -0.00023   0.00002  -0.00021   2.18595
    D5        1.36730   0.00000   0.00012   0.00001   0.00013   1.36742
    D6        1.32197   0.00000   0.00013   0.00002   0.00014   1.32211
    D7        1.10095   0.00000   0.00013   0.00000   0.00013   1.10107
    D8        1.60903   0.00000   0.00003   0.00002   0.00005   1.60908
    D9       -1.80091   0.00000   0.00009  -0.00001   0.00008  -1.80083
   D10       -1.84625   0.00000   0.00010   0.00000   0.00010  -1.84615
   D11       -2.06727   0.00000   0.00010  -0.00002   0.00009  -2.06718
   D12       -1.55918   0.00000   0.00000   0.00000   0.00000  -1.55918
   D13       -0.23619   0.00000   0.00011   0.00005   0.00016  -0.23603
   D14        2.92953   0.00000   0.00013   0.00006   0.00020   2.92973
   D15       -1.81275   0.00000  -0.00004   0.00002  -0.00002  -1.81277
   D16       -2.45089   0.00000   0.00003  -0.00001   0.00001  -2.45088
   D17        1.77270   0.00000  -0.00020   0.00000  -0.00020   1.77250
         Item               Value     Threshold  Converged?
 Maximum Force            0.000026     0.000450     YES
 RMS     Force            0.000004     0.000300     YES
 Maximum Displacement     0.000548     0.001800     YES
 RMS     Displacement     0.000150     0.001200     YES
 Predicted change in Energy=-1.461793D-09
 Optimization completed.
    -- Stationary point found.
                           ----------------------------
                           !   Optimized Parameters   !
                           ! (Angstroms and Degrees)  !
 --------------------------                            --------------------------
 ! Name  Definition              Value          Derivative Info.                !
 --------------------------------------------------------------------------------
 ! R1    R(1,2)                  1.0815         -DE/DX =    0.0                 !
 ! R2    R(1,3)                  1.0787         -DE/DX =    0.0                 !
 ! R3    R(1,4)                  1.0833         -DE/DX =    0.0                 !
 ! R4    R(1,7)                  1.45           -DE/DX =    0.0                 !
 ! R5    R(1,9)                  3.3634         -DE/DX =    0.0                 !
 ! R6    R(2,9)                  2.6942         -DE/DX =    0.0                 !
 ! R7    R(3,9)                  3.8745         -DE/DX =    0.0                 !
 ! R8    R(5,6)                  1.0765         -DE/DX =    0.0                 !
 ! R9    R(5,9)                  1.1948         -DE/DX =    0.0                 !
 ! R10   R(5,10)                 1.3573         -DE/DX =    0.0                 !
 ! R11   R(7,8)                  0.9667         -DE/DX =    0.0                 !
 ! R12   R(7,9)                  3.1377         -DE/DX =    0.0                 !
 ! R13   R(10,11)                0.965          -DE/DX =    0.0                 !
 ! A1    A(2,1,3)              109.3427         -DE/DX =    0.0                 !
 ! A2    A(2,1,4)              109.8274         -DE/DX =    0.0                 !
 ! A3    A(2,1,7)              110.8451         -DE/DX =    0.0                 !
 ! A4    A(3,1,4)              108.7872         -DE/DX =    0.0                 !
 ! A5    A(3,1,7)              106.3482         -DE/DX =    0.0                 !
 ! A6    A(4,1,7)              111.5923         -DE/DX =    0.0                 !
 ! A7    A(4,1,9)              138.747          -DE/DX =    0.0                 !
 ! A8    A(6,5,9)              124.0092         -DE/DX =    0.0                 !
 ! A9    A(6,5,10)             113.8423         -DE/DX =    0.0                 !
 ! A10   A(9,5,10)             122.133          -DE/DX =    0.0                 !
 ! A11   A(1,7,8)              110.028          -DE/DX =    0.0                 !
 ! A12   A(8,7,9)               80.5991         -DE/DX =    0.0                 !
 ! A13   A(1,9,5)               75.6966         -DE/DX =    0.0                 !
 ! A14   A(2,9,3)               23.3719         -DE/DX =    0.0                 !
 ! A15   A(2,9,5)               91.7146         -DE/DX =    0.0                 !
 ! A16   A(2,9,7)               41.2277         -DE/DX =    0.0                 !
 ! A17   A(3,9,5)               71.946          -DE/DX =    0.0                 !
 ! A18   A(3,9,7)               31.5944         -DE/DX =    0.0                 !
 ! A19   A(5,9,7)               53.4303         -DE/DX =    0.0                 !
 ! A20   A(5,10,11)            113.0619         -DE/DX =    0.0                 !
 ! D1    D(2,1,7,8)             65.7358         -DE/DX =    0.0                 !
 ! D2    D(3,1,7,8)           -175.5109         -DE/DX =    0.0                 !
 ! D3    D(4,1,7,8)            -57.0181         -DE/DX =    0.0                 !
 ! D4    D(4,1,9,5)            125.2577         -DE/DX =    0.0                 !
 ! D5    D(6,5,9,1)             78.3404         -DE/DX =    0.0                 !
 ! D6    D(6,5,9,2)             75.743          -DE/DX =    0.0                 !
 ! D7    D(6,5,9,3)             63.0796         -DE/DX =    0.0                 !
 ! D8    D(6,5,9,7)             92.1906         -DE/DX =    0.0                 !
 ! D9    D(10,5,9,1)          -103.1847         -DE/DX =    0.0                 !
 ! D10   D(10,5,9,2)          -105.7821         -DE/DX =    0.0                 !
 ! D11   D(10,5,9,3)          -118.4456         -DE/DX =    0.0                 !
 ! D12   D(10,5,9,7)           -89.3345         -DE/DX =    0.0                 !
 ! D13   D(6,5,10,11)          -13.5325         -DE/DX =    0.0                 !
 ! D14   D(9,5,10,11)          167.8497         -DE/DX =    0.0                 !
 ! D15   D(8,7,9,2)           -103.8627         -DE/DX =    0.0                 !
 ! D16   D(8,7,9,3)           -140.4256         -DE/DX =    0.0                 !
 ! D17   D(8,7,9,5)            101.5681         -DE/DX =    0.0                 !
 --------------------------------------------------------------------------------
 GradGradGradGradGradGradGradGradGradGradGradGradGradGradGradGradGradGrad

                          Input orientation:                          
 ---------------------------------------------------------------------
 Center     Atomic      Atomic             Coordinates (Angstroms)
 Number     Number       Type             X           Y           Z
 ---------------------------------------------------------------------
      1          6           0       -2.179638   -0.629909   -0.128467
      2          1           0       -1.715161    0.244413    0.306786
      3          1           0       -2.409980   -0.434013   -1.163970
      4          1           0       -3.099495   -0.857124    0.396607
      5          6           0        1.099047   -0.660926   -0.066193
      6          1           0        1.006555   -0.701404   -1.137979
      7          8           0       -1.267644   -1.757133   -0.119406
      8          1           0       -1.080184   -2.024008    0.790583
      9          8           0        0.963651    0.335433    0.579076
     10          8           0        1.417693   -1.851506    0.502350
     11          1           0        1.312967   -2.598133   -0.100004
 ---------------------------------------------------------------------
                    Distance matrix (angstroms):
                    1          2          3          4          5
     1  C    0.000000
     2  H    1.081490   0.000000
     3  H    1.078750   1.762429   0.000000
     4  H    1.083266   1.771393   1.757798   0.000000
     5  C    3.279423   2.979684   3.683731   4.228526   0.000000
     6  H    3.343061   3.223299   3.427081   4.386212   1.076531
     7  O    1.449983   2.094779   2.036344   2.105223   2.608779
     8  H    1.999241   2.404784   2.848986   2.365260   2.709447
     9  O    3.363446   2.694153   3.874486   4.238472   1.194753
    10  O    3.851106   3.774373   4.408740   4.626550   1.357298
    11  H    4.009115   4.173141   4.435739   4.769440   1.949276
                    6          7          8          9         10
     6  H    0.000000
     7  O    2.706296   0.000000
     8  H    3.134184   0.966666   0.000000
     9  O    2.006278   3.137736   3.128731   0.000000
    10  O    2.045103   2.757992   2.520361   2.234892   0.000000
    11  H    2.183772   2.714260   2.617238   3.031333   0.965013
                   11
    11  H    0.000000
 Stoichiometry    C2H6O3
 Framework group  C1[X(C2H6O3)]
 Deg. of freedom    27
 Full point group                 C1      NOp   1
 Largest Abelian subgroup         C1      NOp   1
 Largest concise Abelian subgroup C1      NOp   1
                         Standard orientation:                         
 ---------------------------------------------------------------------
 Center     Atomic      Atomic             Coordinates (Angstroms)
 Number     Number       Type             X           Y           Z
 ---------------------------------------------------------------------
      1          6           0        2.103212    0.377524   -0.002929
      2          1           0        1.564580    1.259433   -0.321889
      3          1           0        2.467382    0.525131    1.001707
      4          1           0        2.948234    0.205896   -0.658632
      5          6           0       -1.152121    0.252242    0.373535
      6          1           0       -0.914289    0.157885    1.419218
      7          8           0        1.223844   -0.774295    0.046824
      8          1           0        0.920753   -0.998112   -0.843392
      9          8           0       -1.127773    1.284934   -0.226788
     10          8           0       -1.518207   -0.915549   -0.213409
     11          1           0       -1.316114   -1.689550    0.326340
 ---------------------------------------------------------------------
 Rotational constants (GHZ):      7.7624604      2.8320458      2.2134804

 **********************************************************************

            Population analysis using the SCF density.

 **********************************************************************

 Orbital symmetries:
       Occupied  (A) (A) (A) (A) (A) (A) (A) (A) (A) (A) (A) (A)
                 (A) (A) (A) (A) (A) (A) (A) (A) (A)
       Virtual   (A) (A) (A) (A) (A) (A) (A) (A) (A) (A) (A) (A)
                 (A) (A) (A) (A) (A) (A) (A) (A) (A) (A) (A) (A)
                 (A) (A) (A) (A) (A) (A) (A) (A) (A) (A) (A) (A)
 The electronic state is 1-A.
 Alpha  occ. eigenvalues --  -20.49630 -20.45521 -20.44979 -11.33121 -11.21790
 Alpha  occ. eigenvalues --   -1.45713  -1.36926  -1.34983  -0.93631  -0.84926
 Alpha  occ. eigenvalues --   -0.77426  -0.68161  -0.64005  -0.63701  -0.60451
 Alpha  occ. eigenvalues --   -0.58474  -0.55831  -0.49857  -0.46301  -0.45192
 Alpha  occ. eigenvalues --   -0.43787
 Alpha virt. eigenvalues --    0.20230   0.24324   0.27834   0.30771   0.32886
 Alpha virt. eigenvalues --    0.33965   0.36105   0.41006   0.51704   0.56374
 Alpha virt. eigenvalues --    0.89957   0.93434   0.95612   0.99565   1.02858
 Alpha virt. eigenvalues --    1.08565   1.14601   1.27638   1.29718   1.32096
 Alpha virt. eigenvalues --    1.33063   1.37751   1.52140   1.81218   1.85250
 Alpha virt. eigenvalues --    1.89902   1.93207   1.94834   1.97830   2.02105
 Alpha virt. eigenvalues --    2.06243   2.16680   2.19502   3.28048   3.39110
 Alpha virt. eigenvalues --    3.55177
          Condensed to atoms (all electrons):
              1          2          3          4          5          6
     1  C    5.046153   0.350009   0.369406   0.356154  -0.002989  -0.000124
     2  H    0.350009   0.532020  -0.031500  -0.037571  -0.000610  -0.000020
     3  H    0.369406  -0.031500   0.501140  -0.031502  -0.000020   0.000049
     4  H    0.356154  -0.037571  -0.031502   0.558817   0.000223  -0.000003
     5  C   -0.002989  -0.000610  -0.000020   0.000223   4.323086   0.321591
     6  H   -0.000124  -0.000020   0.000049  -0.000003   0.321591   0.620937
     7  O    0.219500  -0.033450  -0.027824  -0.029789   0.017077  -0.000481
     8  H   -0.043927  -0.001276   0.004168  -0.004390  -0.002418   0.000275
     9  O   -0.001357   0.006722   0.000019   0.000006   0.519055  -0.063790
    10  O   -0.000045   0.000009  -0.000006  -0.000007   0.181313  -0.071200
    11  H   -0.000056  -0.000006  -0.000004   0.000003  -0.024855   0.000130
              7          8          9         10         11
     1  C    0.219500  -0.043927  -0.001357  -0.000045  -0.000056
     2  H   -0.033450  -0.001276   0.006722   0.000009  -0.000006
     3  H   -0.027824   0.004168   0.000019  -0.000006  -0.000004
     4  H   -0.029789  -0.004390   0.000006  -0.000007   0.000003
     5  C    0.017077  -0.002418   0.519055   0.181313  -0.024855
     6  H   -0.000481   0.000275  -0.063790  -0.071200   0.000130
     7  O    8.296381   0.260847  -0.001278  -0.003734   0.002629
     8  H    0.260847   0.391491  -0.000365   0.006354  -0.000627
     9  O   -0.001278  -0.000365   8.165894  -0.047116   0.001754
    10  O   -0.003734   0.006354  -0.047116   8.384162   0.263082
    11  H    0.002629  -0.000627   0.001754   0.263082   0.343849
 Mulliken atomic charges:
              1
     1  C   -0.292725
     2  H    0.215673
     3  H    0.216074
     4  H    0.188058
     5  C    0.668547
     6  H    0.192636
     7  O   -0.699878
     8  H    0.389869
     9  O   -0.579544
    10  O   -0.712811
    11  H    0.414100
 Sum of Mulliken atomic charges =   0.00000
 Mulliken charges with hydrogens summed into heavy atoms:
              1
     1  C    0.327081
     5  C    0.861183
     7  O   -0.310009
     9  O   -0.579544
    10  O   -0.298711
 Sum of Mulliken charges with hydrogens summed into heavy atoms =   0.00000
 Electronic spatial extent (au):  <R**2>=            542.1825
 Charge=              0.0000 electrons
 Dipole moment (field-independent basis, Debye):
    X=              1.6751    Y=             -1.9675    Z=              1.5443  Tot=              3.0103
 Quadrupole moment (field-independent basis, Debye-Ang):
   XX=            -29.2495   YY=            -31.1861   ZZ=            -27.7012
   XY=              5.3381   XZ=             -5.8420   YZ=              1.0384
 Traceless Quadrupole moment (field-independent basis, Debye-Ang):
   XX=              0.1294   YY=             -1.8071   ZZ=              1.6777
   XY=              5.3381   XZ=             -5.8420   YZ=              1.0384
 Octapole moment (field-independent basis, Debye-Ang**2):
  XXX=              6.5546  YYY=            -17.1017  ZZZ=             -0.2827  XYY=             -2.0036
  XXY=              1.4020  XXZ=              4.0336  XZZ=             -0.0777  YZZ=             -2.6109
  YYZ=              1.4743  XYZ=              3.8088
 Hexadecapole moment (field-independent basis, Debye-Ang**3):
 XXXX=           -434.4223 YYYY=           -138.5939 ZZZZ=            -43.7816 XXXY=              4.8669
 XXXZ=             -8.6405 YYYX=             17.1554 YYYZ=             -1.5775 ZZZX=             -0.6904
 ZZZY=              1.5902 XXYY=           -102.5398 XXZZ=            -78.4856 YYZZ=            -30.9289
 XXYZ=             -0.0676 YYXZ=             -7.2552 ZZXY=             -1.2176
 N-N= 1.821899270318D+02 E-N=-1.077333811156D+03  KE= 3.012400457441D+02
 1\1\RECHENZENTRUM RWTH AACHEN-LOGIN18-1\FOpt\RHF\3-21G\C2H6O3\DK918358
 \07-May-2020\0\\# opt=calcfc hf/3-21g\\Veresterung\\0,1\C,-2.179637810
 9,-0.6299087508,-0.1284666455\H,-1.7151607426,0.2444126509,0.306785729
 \H,-2.4099798201,-0.4340125238,-1.1639702498\H,-3.0994950682,-0.857124
 2511,0.3966065749\C,1.0990470081,-0.6609258779,-0.0661931606\H,1.00655
 53858,-0.7014044992,-1.1379793776\O,-1.267643608,-1.7571333463,-0.1194
 060026\H,-1.0801836486,-2.0240080802,0.7905826651\O,0.9636512935,0.335
 432919,0.5790756551\O,1.4176928142,-1.8515061034,0.5023499445\H,1.3129
 671669,-2.598133117,-0.1000037124\\Version=EM64L-G09RevA.02\State=1-A\
 HF=-302.1010234\RMSD=5.182e-09\RMSF=7.544e-06\Dipole=-0.5482376,-0.753
 0787,-0.7314305\Quadrupole=1.4978276,-1.413769,-0.0840586,-3.5117397,-
 4.4916671,-1.5049959\PG=C01 [X(C2H6O3)]\\@


      HUMANKIND PERIODICALLY GOES THROUGH A SPEEDUP OF ITS AFFAIRS, 
      THEREBY EXPERIENCING THE RACE BETWEEN THE RENEWABLE VITALITY
      OF THE LIVING, AND THE BECKONING VITIATION OF DECADENCE.
      IN THIS PERIODIC RACE, ANY PAUSE BECOMES A LUXURY.
      ONLY THEN CAN ONE REFLECT THAT ALL IS PERMITTED;
      ALL IS POSSIBLE.

                              -- THE APOCRYPHA OF MUAD'DIB
                                 CHILDREN OF DUNE, BY FRANK HERBERT
 Job cpu time:  0 days  0 hours  5 minutes 26.9 seconds.
 File lengths (MBytes):  RWF=      9 Int=      0 D2E=      0 Chk=      2 Scr=      1
 Normal termination of Gaussian 09 at Thu May  7 09:10:42 2020.
