 Entering Gaussian System, Link 0=/usr/local_rwth/sw/gaussian/LINUX_emt64/g09.a02/g09
 Input=Veresterung_irc.com
 Output=Veresterung_irc.log
 Initial command:
 /usr/local_rwth/sw/gaussian/LINUX_emt64/g09.a02/l1.exe /w0/tmp/slurm_dk918358.13853284/Gau-203890.inp -scrdir=/w0/tmp/slurm_dk918358.13853284/
 Entering Link 1 = /usr/local_rwth/sw/gaussian/LINUX_emt64/g09.a02/l1.exe PID=    203891.

 Copyright (c) 1988,1990,1992,1993,1995,1998,2003,2009, Gaussian, Inc.
                  All Rights Reserved.

 This is part of the Gaussian(R) 09 program.  It is based on
 the Gaussian(R) 03 system (copyright 2003, Gaussian, Inc.),
 the Gaussian(R) 98 system (copyright 1998, Gaussian, Inc.),
 the Gaussian(R) 94 system (copyright 1995, Gaussian, Inc.),
 the Gaussian 92(TM) system (copyright 1992, Gaussian, Inc.),
 the Gaussian 90(TM) system (copyright 1990, Gaussian, Inc.),
 the Gaussian 88(TM) system (copyright 1988, Gaussian, Inc.),
 the Gaussian 86(TM) system (copyright 1986, Carnegie Mellon
 University), and the Gaussian 82(TM) system (copyright 1983,
 Carnegie Mellon University). Gaussian is a federally registered
 trademark of Gaussian, Inc.

 This software contains proprietary and confidential information,
 including trade secrets, belonging to Gaussian, Inc.

 This software is provided under written license and may be
 used, copied, transmitted, or stored only in accord with that
 written license.

 The following legend is applicable only to US Government
 contracts under FAR:

                    RESTRICTED RIGHTS LEGEND

 Use, reproduction and disclosure by the US Government is
 subject to restrictions as set forth in subparagraphs (a)
 and (c) of the Commercial Computer Software - Restricted
 Rights clause in FAR 52.227-19.

 Gaussian, Inc.
 340 Quinnipiac St., Bldg. 40, Wallingford CT 06492


 ---------------------------------------------------------------
 Warning -- This program may not be used in any manner that
 competes with the business of Gaussian, Inc. or will provide
 assistance to any competitor of Gaussian, Inc.  The licensee
 of this program is prohibited from giving any competitor of
 Gaussian, Inc. access to this program.  By using this program,
 the user acknowledges that Gaussian, Inc. is engaged in the
 business of creating and licensing software in the field of
 computational chemistry and represents and warrants to the
 licensee that it is not a competitor of Gaussian, Inc. and that
 it will not use this program in any manner prohibited above.
 ---------------------------------------------------------------


 Cite this work as:
 Gaussian 09, Revision A.02,
 M. J. Frisch, G. W. Trucks, H. B. Schlegel, G. E. Scuseria,
 M. A. Robb, J. R. Cheeseman, G. Scalmani, V. Barone, B. Mennucci,
 G. A. Petersson, H. Nakatsuji, M. Caricato, X. Li, H. P. Hratchian,
 A. F. Izmaylov, J. Bloino, G. Zheng, J. L. Sonnenberg, M. Hada,
 M. Ehara, K. Toyota, R. Fukuda, J. Hasegawa, M. Ishida, T. Nakajima,
 Y. Honda, O. Kitao, H. Nakai, T. Vreven, J. A. Montgomery, Jr.,
 J. E. Peralta, F. Ogliaro, M. Bearpark, J. J. Heyd, E. Brothers,
 K. N. Kudin, V. N. Staroverov, R. Kobayashi, J. Normand,
 K. Raghavachari, A. Rendell, J. C. Burant, S. S. Iyengar, J. Tomasi,
 M. Cossi, N. Rega, J. M. Millam, M. Klene, J. E. Knox, J. B. Cross,
 V. Bakken, C. Adamo, J. Jaramillo, R. Gomperts, R. E. Stratmann,
 O. Yazyev, A. J. Austin, R. Cammi, C. Pomelli, J. W. Ochterski,
 R. L. Martin, K. Morokuma, V. G. Zakrzewski, G. A. Voth,
 P. Salvador, J. J. Dannenberg, S. Dapprich, A. D. Daniels,
 O. Farkas, J. B. Foresman, J. V. Ortiz, J. Cioslowski,
 and D. J. Fox, Gaussian, Inc., Wallingford CT, 2009.

 ******************************************
 Gaussian 09:  EM64L-G09RevA.02 11-Jun-2009
                13-May-2020
 ******************************************
 %nprocshared=8
 Will use up to    8 processors via shared memory.
 %mem=8GB
 %chk=Veresterung_irc.chk
 Default route: MaxDisk=200000000
 ----------------------------------------------------------------------
 # irc=(calcfc,recorrect=always,maxpoints=100,recalc=1) hf/6-311++g(df,
 pd) nosymm
 ----------------------------------------------------------------------
 1/10=4,18=20,38=1,42=100,44=3,71=1,131=3/1,23;
 2/9=110,12=2,15=1,17=6,18=5,29=1,40=1/2;
 3/5=4,6=6,7=1313,11=9,16=1,25=1,30=1,71=2/1,2,3;
 4//1;
 5/5=2,38=5/2;
 8/6=4,10=90,11=11/1;
 11/6=1,8=1,9=11,15=111,16=1,31=1/1,2,10;
 10/6=1,7=6,13=1,31=1/2;
 6/7=2,8=2,9=2,10=2,28=1/1;
 7/10=1,18=20,25=1,30=1/1,2,3,16;
 1/10=4,18=20,42=100,44=3,71=1,131=3/23(3);
 2/9=110,15=1,29=1/2;
 7/9=1,25=1,30=1,44=-1/16;
 99//99;
 2/9=110,15=1,29=1/2;
 3/5=4,6=6,7=1313,11=9,16=1,25=1,30=1,71=2/1,2,3;
 4/5=5,16=3/1;
 5/5=2,38=5/2;
 8/6=4,10=90,11=11/1;
 11/6=1,8=1,9=11,15=111,16=1,31=1/1,2,10;
 10/6=1,7=6,13=1,31=1/2;
 7/10=1,18=20,25=1,30=1/1,2,3,16;
 1/18=20,42=100,44=3,71=1,131=3/23(-8);
 2/9=110,15=1,29=1/2;
 6/7=2,8=2,9=2,10=2,19=2,28=1/1;
 7/9=1,25=1,30=1,44=-1/16;
 99/9=1/99;
 -----------------------------------
 opt Veresterung-verseifung mit scan
 -----------------------------------
 Symbolic Z-matrix:
 Charge =  0 Multiplicity = 1
 C(Fragment=1)        -2.4729    0.36307  -0.45941
 H(Fragment=1)        -2.42051   1.10571  -1.24042
 O(Fragment=1)        -3.34986   0.19886   0.32135
 O(Fragment=1)        -1.86492  -0.92035  -1.13685
 C(Fragment=1)        -2.53501  -2.1484   -0.93429
 H(Fragment=1)        -1.93868  -2.92093  -1.3976
 H(Fragment=1)        -2.66422  -2.35439   0.11884
 H(Fragment=1)        -3.50485  -2.10124  -1.4072
 O(Fragment=2)        -0.95558   0.49089   0.17804
 H(Fragment=2)        -1.00858  -0.55244  -0.43814
 H(Fragment=2)        -1.02127   0.45138   1.11898

 IRC-IRC-IRC-IRC-IRC-IRC-IRC-IRC-IRC-IRC-IRC-IRC-IRC-IRC-IRC-IRC-IRC-IRC
 ------------------------------------------------------------------------
 INPUT DATA FOR L123
 ------------------------------------------------------------------------
 GENERAL PARAMETERS:
 Follow reaction path in both directions.
 Maximum points per path      = 100
 Step size                    =   0.100 bohr
 Integration scheme           = HPC
    Redo corrector integration= Always
    Max correction cycles     =  20
 Initial Hessian              = CalcFC
 Hessian evaluation           = Full Hessian always
 ------------------------------------------------------------------------
 IRC-IRC-IRC-IRC-IRC-IRC-IRC-IRC-IRC-IRC-IRC-IRC-IRC-IRC-IRC-IRC-IRC-IRC
                          Input orientation:
 ---------------------------------------------------------------------
 Center     Atomic      Atomic             Coordinates (Angstroms)
 Number     Number       Type             X           Y           Z
 ---------------------------------------------------------------------
      1          6           0       -2.472900    0.363073   -0.459414
      2          1           0       -2.420510    1.105709   -1.240417
      3          8           0       -3.349859    0.198859    0.321354
      4          8           0       -1.864917   -0.920348   -1.136850
      5          6           0       -2.535013   -2.148404   -0.934290
      6          1           0       -1.938675   -2.920930   -1.397599
      7          1           0       -2.664216   -2.354391    0.118837
      8          1           0       -3.504848   -2.101238   -1.407200
      9          8           0       -0.955583    0.490888    0.178036
     10          1           0       -1.008582   -0.552438   -0.438136
     11          1           0       -1.021265    0.451382    1.118983
 ---------------------------------------------------------------------
                    Distance matrix (angstroms):
                    1          2          3          4          5
     1  C    0.000000
     2  H    1.078990   0.000000
     3  O    1.185589   2.031058   0.000000
     4  O    1.573446   2.103406   2.363056   0.000000
     5  C    2.556733   3.270486   2.783929   1.413570   0.000000
     6  H    3.456915   4.058410   3.831360   2.018851   1.080310
     7  H    2.784885   3.725487   2.651453   2.066908   1.080833
     8  H    2.834792   3.389412   2.881383   2.038863   1.080022
     9  O    1.650736   2.129795   2.416274   2.132463   3.270739
    10  H    1.727090   2.320915   2.573490   1.164847   2.263464
    11  H    2.146248   2.820071   2.474334   2.771674   3.642286
                    6          7          8          9         10
     6  H    0.000000
     7  H    1.773966   0.000000
     8  H    1.767734   1.760550   0.000000
     9  O    3.884533   3.319419   3.966213   0.000000
    10  H    2.719448   2.509657   3.093414   1.212850   0.000000
    11  H    4.306659   3.401756   4.366423   0.944064   1.852683
                   11
    11  H    0.000000
 Symmetry turned off by external request.
 Stoichiometry    C2H6O3
 Framework group  C1[X(C2H6O3)]
 Deg. of freedom    27
 Full point group                 C1      NOp   1
 Rotational constants (GHZ):      7.6554159      4.3919793      3.2364791
 Standard basis: 6-311++G(df,pd) (5D, 7F)
 Integral buffers will be    131072 words long.
 Raffenetti 1 integral format.
 Two-electron integral symmetry is turned off.
   217 basis functions,   320 primitive gaussians,   243 cartesian basis functions
    21 alpha electrons       21 beta electrons
       nuclear repulsion energy       200.4020314040 Hartrees.
 NAtoms=   11 NActive=   11 NUniq=   11 SFac= 7.50D-01 NAtFMM=   80 NAOKFM=F Big=F
 One-electron integrals computed using PRISM.
 NBasis=   217 RedAO= T  NBF=   217
 NBsUse=   217 1.00D-06 NBFU=   217
 Harris functional with IExCor=  205 diagonalized for initial guess.
 ExpMin= 3.60D-02 ExpMax= 8.59D+03 ExpMxC= 1.30D+03 IAcc=3 IRadAn=         0 AccDes= 0.00D+00
 HarFok:  IExCor=  205 AccDes= 0.00D+00 IRadAn=         0 IDoV= 1
 ScaDFX=  1.000000  1.000000  1.000000  1.000000
 FoFCou: FMM=F IPFlag=           0 FMFlag=      100000 FMFlg1=           0
         NFxFlg=           0 DoJE=T BraDBF=F KetDBF=T FulRan=T
         Omega=  0.000000  0.000000  1.000000  0.000000  0.000000 ICntrl=     500 IOpCl=  0
         NMat0=    1 NMatS0=    1 NMatT0=    0 NMatD0=    1 NMtDS0=    0 NMtDT0=    0
         I1Cent=           4 NGrid=           0.
 Symmetry not used in FoFCou.
 Requested convergence on RMS density matrix=1.00D-08 within 128 cycles.
 Requested convergence on MAX density matrix=1.00D-06.
 Requested convergence on             energy=1.00D-06.
 No special actions if energy rises.
 Keep R1 ints in memory in canonical form, NReq=446919482.
 SCF Done:  E(RHF) =  -303.815980879     A.U. after   13 cycles
             Convg  =    0.4709D-08             -V/T =  2.0002
 Range of M.O.s used for correlation:     1   217
 NBasis=   217 NAE=    21 NBE=    21 NFC=     0 NFV=     0
 NROrb=    217 NOA=    21 NOB=    21 NVA=   196 NVB=   196

 **** Warning!!: The largest alpha MO coefficient is  0.14891302D+02

 Symmetrizing basis deriv contribution to polar:
 IMax=3 JMax=2 DiffMx= 0.00D+00
 G2DrvN: will do    12 centers at a time, making    1 passes doing MaxLOS=3.
 Calling FoFCou, ICntrl=  3107 FMM=F I1Cent=   0 AccDes= 0.00D+00.
 FoFDir/FoFCou used for L=0 through L=3.
 End of G2Drv Frequency-dependent properties file   721 does not exist.
 End of G2Drv Frequency-dependent properties file   722 does not exist.
          IDoAtm=11111111111
          Differentiating once with respect to nuclear coordinates.
          Keep R1 ints in memory in canonical form, NReq=441399030.
          There are    36 degrees of freedom in the 1st order CPHF.  IDoFFX=5.
     30 vectors produced by pass  0 Test12= 1.14D-10 2.78D-07 XBig12= 1.12D-01 7.85D-02.
 AX will form    30 AO Fock derivatives at one time.
     30 vectors produced by pass  1 Test12= 1.14D-10 2.78D-07 XBig12= 5.40D-03 1.38D-02.
     30 vectors produced by pass  2 Test12= 1.14D-10 2.78D-07 XBig12= 3.15D-04 2.82D-03.
     30 vectors produced by pass  3 Test12= 1.14D-10 2.78D-07 XBig12= 3.58D-06 3.46D-04.
     30 vectors produced by pass  4 Test12= 1.14D-10 2.78D-07 XBig12= 3.97D-08 3.21D-05.
     15 vectors produced by pass  5 Test12= 1.14D-10 2.78D-07 XBig12= 4.03D-10 2.24D-06.
 Inverted reduced A of dimension   165 with in-core refinement.
 End of Minotr Frequency-dependent properties file   721 does not exist.
 End of Minotr Frequency-dependent properties file   722 does not exist.

 **********************************************************************

            Population analysis using the SCF density.

 **********************************************************************

 Alpha  occ. eigenvalues --  -20.60758 -20.58294 -20.51817 -11.40531 -11.29113
 Alpha  occ. eigenvalues --   -1.47427  -1.37507  -1.35014  -0.98698  -0.85083
 Alpha  occ. eigenvalues --   -0.78602  -0.71684  -0.67294  -0.64260  -0.63056
 Alpha  occ. eigenvalues --   -0.62075  -0.56499  -0.54640  -0.48362  -0.44220
 Alpha  occ. eigenvalues --   -0.42922
 Alpha virt. eigenvalues --    0.03799   0.05632   0.05743   0.06865   0.08819
 Alpha virt. eigenvalues --    0.09780   0.12189   0.12673   0.14623   0.15885
 Alpha virt. eigenvalues --    0.17144   0.17336   0.18924   0.19957   0.25276
 Alpha virt. eigenvalues --    0.26974   0.27314   0.28308   0.28828   0.29862
 Alpha virt. eigenvalues --    0.31043   0.32722   0.33566   0.35841   0.36831
 Alpha virt. eigenvalues --    0.37088   0.38217   0.39991   0.41283   0.41799
 Alpha virt. eigenvalues --    0.42488   0.43573   0.46210   0.47796   0.51368
 Alpha virt. eigenvalues --    0.58128   0.61099   0.62587   0.68647   0.70690
 Alpha virt. eigenvalues --    0.74977   0.77294   0.78459   0.83116   0.84488
 Alpha virt. eigenvalues --    0.86611   0.89693   0.98825   1.03534   1.13827
 Alpha virt. eigenvalues --    1.18720   1.20125   1.21559   1.26688   1.28622
 Alpha virt. eigenvalues --    1.32518   1.37687   1.40268   1.41300   1.42908
 Alpha virt. eigenvalues --    1.46897   1.56594   1.59144   1.66218   1.66681
 Alpha virt. eigenvalues --    1.68681   1.69220   1.72034   1.73892   1.77827
 Alpha virt. eigenvalues --    1.82887   1.84049   1.90403   1.93354   1.95209
 Alpha virt. eigenvalues --    1.95435   2.00298   2.06236   2.09542   2.13053
 Alpha virt. eigenvalues --    2.18770   2.22383   2.25694   2.30083   2.36220
 Alpha virt. eigenvalues --    2.37865   2.43390   2.45404   2.50213   2.50620
 Alpha virt. eigenvalues --    2.67638   2.70755   2.72282   2.77328   2.80124
 Alpha virt. eigenvalues --    2.81185   2.84500   2.85391   2.88200   2.94090
 Alpha virt. eigenvalues --    2.94839   3.03113   3.04666   3.07715   3.10732
 Alpha virt. eigenvalues --    3.15521   3.18940   3.20730   3.24959   3.26919
 Alpha virt. eigenvalues --    3.28335   3.31213   3.33765   3.36646   3.40849
 Alpha virt. eigenvalues --    3.42845   3.46884   3.53055   3.55545   3.60194
 Alpha virt. eigenvalues --    3.63400   3.66798   3.72448   3.73590   3.76377
 Alpha virt. eigenvalues --    3.80292   3.89793   3.95782   4.02104   4.07338
 Alpha virt. eigenvalues --    4.10567   4.13050   4.16680   4.25532   4.26745
 Alpha virt. eigenvalues --    4.33351   4.37174   4.38575   4.43790   4.44259
 Alpha virt. eigenvalues --    4.48216   4.51392   4.57407   4.64432   4.73255
 Alpha virt. eigenvalues --    4.74155   4.80986   4.82181   4.84944   4.88735
 Alpha virt. eigenvalues --    4.93910   4.94530   4.98458   5.07088   5.07911
 Alpha virt. eigenvalues --    5.14946   5.19604   5.22373   5.23948   5.47657
 Alpha virt. eigenvalues --    5.50544   5.54195   5.54947   5.64277   5.67583
 Alpha virt. eigenvalues --    5.67798   5.72537   5.72770   5.77814   5.81068
 Alpha virt. eigenvalues --    5.83956   5.86371   5.90620   5.93328   6.01272
 Alpha virt. eigenvalues --    6.11029   6.15754   6.23234   6.38104   6.40091
 Alpha virt. eigenvalues --    6.60170   6.61357   6.68997   6.76644   6.80427
 Alpha virt. eigenvalues --    6.89170   6.92693   6.97559   7.10042   7.33937
 Alpha virt. eigenvalues --    7.85433  26.02248  26.65647  51.76337  52.10978
 Alpha virt. eigenvalues --   52.15521
          Condensed to atoms (all electrons):
              1          2          3          4          5          6
     1  C    5.261497   0.369845   0.452686  -0.038024  -0.088521   0.018152
     2  H    0.369845   0.597064  -0.037947  -0.068151   0.009251  -0.001203
     3  O    0.452686  -0.037947   8.147233  -0.084220  -0.001955   0.003619
     4  O   -0.038024  -0.068151  -0.084220   8.509265   0.062368  -0.071287
     5  C   -0.088521   0.009251  -0.001955   0.062368   5.008475   0.417858
     6  H    0.018152  -0.001203   0.003619  -0.071287   0.417858   0.559401
     7  H    0.000247   0.002774  -0.001044  -0.070636   0.421840  -0.034885
     8  H    0.004958  -0.006463  -0.011507  -0.026233   0.427362  -0.024369
     9  O    0.006300  -0.073111  -0.094611  -0.162720   0.038948  -0.003311
    10  H   -0.016432  -0.008143   0.013162   0.226381  -0.022671  -0.002452
    11  H   -0.010000   0.003339  -0.005173   0.020425   0.000469   0.000163
              7          8          9         10         11
     1  C    0.000247   0.004958   0.006300  -0.016432  -0.010000
     2  H    0.002774  -0.006463  -0.073111  -0.008143   0.003339
     3  O   -0.001044  -0.011507  -0.094611   0.013162  -0.005173
     4  O   -0.070636  -0.026233  -0.162720   0.226381   0.020425
     5  C    0.421840   0.427362   0.038948  -0.022671   0.000469
     6  H   -0.034885  -0.024369  -0.003311  -0.002452   0.000163
     7  H    0.545426  -0.032047   0.002254   0.008454  -0.000906
     8  H   -0.032047   0.508809  -0.010234   0.001968  -0.000097
     9  O    0.002254  -0.010234   8.320290   0.140348   0.323040
    10  H    0.008454   0.001968   0.140348   0.257405  -0.017259
    11  H   -0.000906  -0.000097   0.323040  -0.017259   0.383928
 Mulliken atomic charges:
              1
     1  C    0.039291
     2  H    0.212743
     3  O   -0.380244
     4  O   -0.297170
     5  C   -0.273425
     6  H    0.138313
     7  H    0.158521
     8  H    0.167852
     9  O   -0.487193
    10  H    0.419240
    11  H    0.302072
 Sum of Mulliken atomic charges =   0.00000
 Mulliken charges with hydrogens summed into heavy atoms:
              1
     1  C    0.252034
     3  O   -0.380244
     4  O    0.122069
     5  C    0.191261
     9  O   -0.185121
 Sum of Mulliken charges with hydrogens summed into heavy atoms =   0.00000
          Condensed to fragments (all electrons):
     1      -0.234119
     2       0.234119
 APT atomic charges:
              1
     1  C   -0.540611
     2  H    0.443022
     3  O   -0.207804
     4  O    0.276118
     5  C   -1.489888
     6  H    0.393277
     7  H    0.300578
     8  H    0.709446
     9  O   -0.512201
    10  H    0.138987
    11  H    0.489076
 Sum of APT charges=   0.00000
 APT Atomic charges with hydrogens summed into heavy atoms:
              1
     1  C   -0.097589
     2  H    0.000000
     3  O   -0.207804
     4  O    0.415105
     5  C   -0.086587
     6  H    0.000000
     7  H    0.000000
     8  H    0.000000
     9  O   -0.023125
    10  H    0.000000
    11  H    0.000000
 Sum of APT charges=   0.00000
 Electronic spatial extent (au):  <R**2>=           1191.6872
 Charge=              0.0000 electrons
 Dipole moment (field-independent basis, Debye):
    X=              1.5091    Y=             -2.0252    Z=             -0.6356  Tot=              2.6044
 Quadrupole moment (field-independent basis, Debye-Ang):
   XX=            -41.5939   YY=            -25.4348   ZZ=            -28.6350
   XY=              4.2305   XZ=              5.6471   YZ=              0.5560
 Traceless Quadrupole moment (field-independent basis, Debye-Ang):
   XX=             -9.7060   YY=              6.4530   ZZ=              3.2529
   XY=              4.2305   XZ=              5.6471   YZ=              0.5560
 Octapole moment (field-independent basis, Debye-Ang**2):
  XXX=            256.6931  YYY=             32.2194  ZZZ=             42.5435  XYY=             54.1362
  XXY=              0.5744  XXZ=            -10.3474  XZZ=             64.7588  YZZ=             16.1304
  YYZ=              7.1913  XYZ=             -1.0532
 Hexadecapole moment (field-independent basis, Debye-Ang**3):
 XXXX=          -1280.3589 YYYY=           -264.5209 ZZZZ=           -134.1079 XXXY=            -62.6612
 XXXZ=             -4.6669 YYYX=            -87.1185 YYYZ=            -48.0882 ZZZX=            -87.8699
 ZZZY=            -60.5865 XXYY=           -189.0979 XXZZ=           -189.4643 YYZZ=            -63.1037
 XXYZ=            -15.1966 YYXZ=            -14.9185 ZZXY=            -37.6924
 N-N= 2.004020314040D+02 E-N=-1.118236654800D+03  KE= 3.037577485798D+02
  Exact polarizability:   0.000   0.000   0.000   0.000   0.000   0.000
 Approx polarizability:  34.457   0.553  31.211  -1.149   1.606  32.191
 Calling FoFJK, ICntrl=    100147 FMM=F ISym2X=0 I1Cent= 0 IOpClX= 0 NMat=1 NMatS=1 NMatT=0.
 -------------------------------------------------------------------
 Center     Atomic                   Forces (Hartrees/Bohr)
 Number     Number              X              Y              Z
 -------------------------------------------------------------------
      1        6          -0.000000146    0.000000370    0.000000071
      2        1          -0.000000046   -0.000000173    0.000000192
      3        8           0.000000212    0.000000026   -0.000000178
      4        8          -0.000000254   -0.000000499   -0.000000091
      5        6          -0.000000616    0.000000206    0.000000342
      6        1           0.000000115   -0.000000122    0.000000026
      7        1           0.000000205    0.000000059   -0.000000557
      8        1           0.000000362   -0.000000046    0.000000074
      9        8           0.000000070    0.000000132    0.000000564
     10        1           0.000000118    0.000000032    0.000000022
     11        1          -0.000000020    0.000000014   -0.000000466
 -------------------------------------------------------------------
 Cartesian Forces:  Max     0.000000616 RMS     0.000000262
 IRC-IRC-IRC-IRC-IRC-IRC-IRC-IRC-IRC-IRC-IRC-IRC-IRC-IRC-IRC-IRC-IRC-IRC
          ******** Start new reaction path calculation ********
 Supplied step size of   0.1000 bohr.
    Integration on MW PES will use step size of   0.1060 sqrt(amu)*bohr.
 Point Number:   0          Path Number:   1
 Calculating another point on the path.
 IRC-IRC-IRC-IRC-IRC-IRC-IRC-IRC-IRC-IRC-IRC-IRC-IRC-IRC-IRC-IRC-IRC-IRC
                          Input orientation:
 ---------------------------------------------------------------------
 Center     Atomic      Atomic             Coordinates (Angstroms)
 Number     Number       Type             X           Y           Z
 ---------------------------------------------------------------------
      1          6           0       -0.273582    0.770049   -0.069801
      2          1           0       -0.224750    1.508105   -0.855414
      3          8           0       -1.152923    0.602721    0.708064
      4          8           0        0.333657   -0.516784   -0.749904
      5          6           0       -0.337646   -1.744936   -0.547202
      6          1           0        0.258079   -2.517514   -1.010703
      7          1           0       -0.467058   -1.949503    0.505759
      8          1           0       -1.306647   -1.694837   -1.020663
      9          8           0        1.239912    0.896113    0.565141
     10          1           0        1.168587   -0.184223   -0.083544
     11          1           0        1.173628    0.859933    1.505947
 ---------------------------------------------------------------------
                    Distance matrix (angstroms):
                    1          2          3          4          5
     1  C    0.000000
     2  H    1.079028   0.000000
     3  O    1.185880   2.031179   0.000000
     4  O    1.577092   2.103123   2.364081   0.000000
     5  C    2.560697   3.269559   2.784217   1.414247   0.000000
     6  H    3.460640   4.057443   3.831572   2.019071   1.080091
     7  H    2.786515   3.723783   2.650506   2.066523   1.080427
     8  H    2.836727   3.384767   2.879392   2.037576   1.079646
     9  O    1.646119   2.130199   2.414988   2.132351   3.271260
    10  H    1.729357   2.324037   2.575914   1.118812   2.218005
    11  H    2.141373   2.819861   2.472977   2.773042   3.644820
                    6          7          8          9         10
     6  H    0.000000
     7  H    1.774293   0.000000
     8  H    1.767841   1.760604   0.000000
     9  O    3.885889   3.318856   3.963932   0.000000
    10  H    2.670748   2.477665   3.047446   1.262143   0.000000
    11  H    4.310325   3.403698   4.366047   0.943832   1.901780
                   11
    11  H    0.000000
 Symmetry turned off by external request.
 Stoichiometry    C2H6O3
 Framework group  C1[X(C2H6O3)]
 Deg. of freedom    27
 Full point group                 C1      NOp   1
 Rotational constants (GHZ):      7.6656830      4.3893860      3.2356808
 Standard basis: 6-311++G(df,pd) (5D, 7F)
 Integral buffers will be    131072 words long.
 Raffenetti 1 integral format.
 Two-electron integral symmetry is turned off.
   217 basis functions,   320 primitive gaussians,   243 cartesian basis functions
    21 alpha electrons       21 beta electrons
       nuclear repulsion energy       200.4293698711 Hartrees.
 NAtoms=   11 NActive=   11 NUniq=   11 SFac= 7.50D-01 NAtFMM=   80 NAOKFM=F Big=F
 One-electron integrals computed using PRISM.
 NBasis=   217 RedAO= T  NBF=   217
 NBsUse=   217 1.00D-06 NBFU=   217
 Initial guess read from the read-write file.
 B after Tr=     0.000000    0.000000    0.000000
         Rot=    1.000000    0.000000    0.000000    0.000000 Ang=   0.00 deg.
 Harris functional with IExCor=  205 diagonalized for initial guess.
 ExpMin= 3.60D-02 ExpMax= 8.59D+03 ExpMxC= 1.30D+03 IAcc=3 IRadAn=         0 AccDes= 0.00D+00
 HarFok:  IExCor=  205 AccDes= 0.00D+00 IRadAn=         0 IDoV= 1
 ScaDFX=  1.000000  1.000000  1.000000  1.000000
 FoFCou: FMM=F IPFlag=           0 FMFlag=      100000 FMFlg1=           0
         NFxFlg=           0 DoJE=T BraDBF=F KetDBF=T FulRan=T
         Omega=  0.000000  0.000000  1.000000  0.000000  0.000000 ICntrl=     500 IOpCl=  0
         NMat0=    1 NMatS0=    1 NMatT0=    0 NMatD0=    1 NMtDS0=    0 NMtDT0=    0
         I1Cent=           4 NGrid=           0.
 Symmetry not used in FoFCou.
 Requested convergence on RMS density matrix=1.00D-08 within 128 cycles.
 Requested convergence on MAX density matrix=1.00D-06.
 Requested convergence on             energy=1.00D-06.
 No special actions if energy rises.
 Keep R1 ints in memory in canonical form, NReq=446919482.
 SCF Done:  E(RHF) =  -303.816661633     A.U. after   12 cycles
             Convg  =    0.2100D-08             -V/T =  2.0002
 Range of M.O.s used for correlation:     1   217
 NBasis=   217 NAE=    21 NBE=    21 NFC=     0 NFV=     0
 NROrb=    217 NOA=    21 NOB=    21 NVA=   196 NVB=   196

 **** Warning!!: The largest alpha MO coefficient is  0.14948822D+02

 Symmetrizing basis deriv contribution to polar:
 IMax=3 JMax=2 DiffMx= 0.00D+00
 G2DrvN: will do    12 centers at a time, making    1 passes doing MaxLOS=3.
 Calling FoFCou, ICntrl=  3107 FMM=F I1Cent=   0 AccDes= 0.00D+00.
 FoFDir/FoFCou used for L=0 through L=3.
 End of G2Drv Frequency-dependent properties file   721 does not exist.
 End of G2Drv Frequency-dependent properties file   722 does not exist.
          IDoAtm=11111111111
          Differentiating once with respect to nuclear coordinates.
          Keep R1 ints in memory in canonical form, NReq=441399030.
          There are    36 degrees of freedom in the 1st order CPHF.  IDoFFX=5.
     30 vectors produced by pass  0 Test12= 1.14D-10 2.78D-07 XBig12= 1.12D-01 8.79D-02.
 AX will form    30 AO Fock derivatives at one time.
     30 vectors produced by pass  1 Test12= 1.14D-10 2.78D-07 XBig12= 5.47D-03 1.57D-02.
     30 vectors produced by pass  2 Test12= 1.14D-10 2.78D-07 XBig12= 3.17D-04 2.82D-03.
     30 vectors produced by pass  3 Test12= 1.14D-10 2.78D-07 XBig12= 3.57D-06 3.30D-04.
     30 vectors produced by pass  4 Test12= 1.14D-10 2.78D-07 XBig12= 3.97D-08 3.62D-05.
     16 vectors produced by pass  5 Test12= 1.14D-10 2.78D-07 XBig12= 4.10D-10 2.27D-06.
 Inverted reduced A of dimension   166 with in-core refinement.
 End of Minotr Frequency-dependent properties file   721 does not exist.
 End of Minotr Frequency-dependent properties file   722 does not exist.
 Calling FoFJK, ICntrl=    100147 FMM=F ISym2X=0 I1Cent= 0 IOpClX= 0 NMat=1 NMatS=1 NMatT=0.
 -------------------------------------------------------------------
 Center     Atomic                   Forces (Hartrees/Bohr)
 Number     Number              X              Y              Z
 -------------------------------------------------------------------
      1        6           0.006348798    0.008031424    0.007700544
      2        1          -0.000328022   -0.000422310   -0.000443105
      3        8          -0.000744142   -0.000963741   -0.000771189
      4        8           0.004208805   -0.002621255   -0.000877137
      5        6           0.000639288   -0.001835587    0.000466450
      6        1          -0.000087412   -0.000172033   -0.000006372
      7        1           0.000009512    0.000186995    0.000011065
      8        1           0.000256256    0.000535011   -0.000085237
      9        8          -0.006180431    0.004676338    0.001006043
     10        1          -0.003565660   -0.008478032   -0.006997844
     11        1          -0.000556991    0.001063190   -0.000003218
 -------------------------------------------------------------------
 Cartesian Forces:  Max     0.008478032 RMS     0.003448891
 IRC-IRC-IRC-IRC-IRC-IRC-IRC-IRC-IRC-IRC-IRC-IRC-IRC-IRC-IRC-IRC-IRC-IRC
 Pt  1 Step number   1 out of a maximum of  20
 CORRECTOR INTEGRATION CONVERGENCE:
   Recorrection delta-x convergence threshold:    0.010000
   Delta-x Convergence Met
 Recorrect forced on => Unset convergence flag.
 IRC-IRC-IRC-IRC-IRC-IRC-IRC-IRC-IRC-IRC-IRC-IRC-IRC-IRC-IRC-IRC-IRC-IRC
                          Input orientation:
 ---------------------------------------------------------------------
 Center     Atomic      Atomic             Coordinates (Angstroms)
 Number     Number       Type             X           Y           Z
 ---------------------------------------------------------------------
      1          6           0       -0.273534    0.770075   -0.069761
      2          1           0       -0.224767    1.508072   -0.855427
      3          8           0       -1.152926    0.602719    0.708061
      4          8           0        0.333601   -0.516826   -0.749966
      5          6           0       -0.337648   -1.744944   -0.547203
      6          1           0        0.258073   -2.517530   -1.010705
      7          1           0       -0.467055   -1.949488    0.505767
      8          1           0       -1.306640   -1.694825   -1.020663
      9          8           0        1.239891    0.896167    0.565166
     10          1           0        1.169383   -0.184642   -0.083375
     11          1           0        1.173568    0.860013    1.505956
 ---------------------------------------------------------------------
                    Distance matrix (angstroms):
                    1          2          3          4          5
     1  C    0.000000
     2  H    1.079023   0.000000
     3  O    1.185895   2.031167   0.000000
     4  O    1.577151   2.103119   2.364104   0.000000
     5  C    2.560739   3.269535   2.784221   1.414201   0.000000
     6  H    3.460683   4.057428   3.831583   2.019036   1.080096
     7  H    2.786523   3.723746   2.650491   2.066504   1.080431
     8  H    2.836769   3.384717   2.879379   2.037486   1.079639
     9  O    1.646052   2.130196   2.414975   2.132482   3.271309
    10  H    1.730225   2.324866   2.576709   1.119473   2.218292
    11  H    2.141279   2.819832   2.472936   2.773159   3.644865
                    6          7          8          9         10
     6  H    0.000000
     7  H    1.774308   0.000000
     8  H    1.767843   1.760609   0.000000
     9  O    3.885957   3.318877   3.963951   0.000000
    10  H    2.670729   2.477842   3.047925   1.262428   0.000000
    11  H    4.310395   3.403721   4.366054   0.943817   1.901919
                   11
    11  H    0.000000
 Symmetry turned off by external request.
 Stoichiometry    C2H6O3
 Framework group  C1[X(C2H6O3)]
 Deg. of freedom    27
 Full point group                 C1      NOp   1
 Rotational constants (GHZ):      7.6656658      4.3891875      3.2355791
 Standard basis: 6-311++G(df,pd) (5D, 7F)
 Integral buffers will be    131072 words long.
 Raffenetti 1 integral format.
 Two-electron integral symmetry is turned off.
   217 basis functions,   320 primitive gaussians,   243 cartesian basis functions
    21 alpha electrons       21 beta electrons
       nuclear repulsion energy       200.4239053985 Hartrees.
 NAtoms=   11 NActive=   11 NUniq=   11 SFac= 7.50D-01 NAtFMM=   80 NAOKFM=F Big=F
 One-electron integrals computed using PRISM.
 NBasis=   217 RedAO= T  NBF=   217
 NBsUse=   217 1.00D-06 NBFU=   217
 Initial guess read from the read-write file.
 B after Tr=     0.000000    0.000000    0.000000
         Rot=    1.000000    0.000000    0.000000    0.000000 Ang=   0.00 deg.
 Harris functional with IExCor=  205 diagonalized for initial guess.
 ExpMin= 3.60D-02 ExpMax= 8.59D+03 ExpMxC= 1.30D+03 IAcc=3 IRadAn=         0 AccDes= 0.00D+00
 HarFok:  IExCor=  205 AccDes= 0.00D+00 IRadAn=         0 IDoV= 1
 ScaDFX=  1.000000  1.000000  1.000000  1.000000
 FoFCou: FMM=F IPFlag=           0 FMFlag=      100000 FMFlg1=           0
         NFxFlg=           0 DoJE=T BraDBF=F KetDBF=T FulRan=T
         Omega=  0.000000  0.000000  1.000000  0.000000  0.000000 ICntrl=     500 IOpCl=  0
         NMat0=    1 NMatS0=    1 NMatT0=    0 NMatD0=    1 NMtDS0=    0 NMtDT0=    0
         I1Cent=           4 NGrid=           0.
 Symmetry not used in FoFCou.
 Requested convergence on RMS density matrix=1.00D-08 within 128 cycles.
 Requested convergence on MAX density matrix=1.00D-06.
 Requested convergence on             energy=1.00D-06.
 No special actions if energy rises.
 Keep R1 ints in memory in canonical form, NReq=446919482.
 SCF Done:  E(RHF) =  -303.816662962     A.U. after    7 cycles
             Convg  =    0.5720D-08             -V/T =  2.0002
 Range of M.O.s used for correlation:     1   217
 NBasis=   217 NAE=    21 NBE=    21 NFC=     0 NFV=     0
 NROrb=    217 NOA=    21 NOB=    21 NVA=   196 NVB=   196

 **** Warning!!: The largest alpha MO coefficient is  0.14949083D+02

 Symmetrizing basis deriv contribution to polar:
 IMax=3 JMax=2 DiffMx= 0.00D+00
 G2DrvN: will do    12 centers at a time, making    1 passes doing MaxLOS=3.
 Calling FoFCou, ICntrl=  3107 FMM=F I1Cent=   0 AccDes= 0.00D+00.
 FoFDir/FoFCou used for L=0 through L=3.
 End of G2Drv Frequency-dependent properties file   721 does not exist.
 End of G2Drv Frequency-dependent properties file   722 does not exist.
          IDoAtm=11111111111
          Differentiating once with respect to nuclear coordinates.
          Keep R1 ints in memory in canonical form, NReq=441399030.
          There are    36 degrees of freedom in the 1st order CPHF.  IDoFFX=5.
     30 vectors produced by pass  0 Test12= 1.14D-10 2.78D-07 XBig12= 1.12D-01 8.78D-02.
 AX will form    30 AO Fock derivatives at one time.
     30 vectors produced by pass  1 Test12= 1.14D-10 2.78D-07 XBig12= 5.47D-03 1.57D-02.
     30 vectors produced by pass  2 Test12= 1.14D-10 2.78D-07 XBig12= 3.17D-04 2.82D-03.
     30 vectors produced by pass  3 Test12= 1.14D-10 2.78D-07 XBig12= 3.57D-06 3.30D-04.
     30 vectors produced by pass  4 Test12= 1.14D-10 2.78D-07 XBig12= 3.97D-08 3.62D-05.
     16 vectors produced by pass  5 Test12= 1.14D-10 2.78D-07 XBig12= 4.10D-10 2.26D-06.
 Inverted reduced A of dimension   166 with in-core refinement.
 End of Minotr Frequency-dependent properties file   721 does not exist.
 End of Minotr Frequency-dependent properties file   722 does not exist.
 Calling FoFJK, ICntrl=    100147 FMM=F ISym2X=0 I1Cent= 0 IOpClX= 0 NMat=1 NMatS=1 NMatT=0.
 -------------------------------------------------------------------
 Center     Atomic                   Forces (Hartrees/Bohr)
 Number     Number              X              Y              Z
 -------------------------------------------------------------------
      1        6           0.006394156    0.007941087    0.007675256
      2        1          -0.000321523   -0.000414342   -0.000441197
      3        8          -0.000727045   -0.000951542   -0.000762932
      4        8           0.004442629   -0.002567872   -0.000715574
      5        6           0.000616316   -0.001835074    0.000451763
      6        1          -0.000091034   -0.000175147   -0.000004889
      7        1           0.000008273    0.000184736    0.000010058
      8        1           0.000244149    0.000519994   -0.000084493
      9        8          -0.006166157    0.004546861    0.000932890
     10        1          -0.003845030   -0.008314691   -0.007082105
     11        1          -0.000554734    0.001065990    0.000021223
 -------------------------------------------------------------------
 Cartesian Forces:  Max     0.008314691 RMS     0.003444939
 IRC-IRC-IRC-IRC-IRC-IRC-IRC-IRC-IRC-IRC-IRC-IRC-IRC-IRC-IRC-IRC-IRC-IRC
 Error in corrector energy =          -0.0000000114
 Magnitude of corrector gradient =     0.0197976958
 Magnitude of analytic gradient =      0.0197896705
 Magnitude of difference =             0.0000228762
 Angle between gradients (degrees)=    0.0620
 Pt  1 Step number   2 out of a maximum of  20
 CORRECTOR INTEGRATION CONVERGENCE:
   Recorrection delta-x convergence threshold:    0.010000
   Delta-x Convergence Met
 Point Number:   1          Path Number:   1
   CHANGE IN THE REACTION COORDINATE =    0.10595
   NET REACTION COORDINATE UP TO THIS POINT =    0.10595
  # OF POINTS ALONG THE PATH =   1
  # OF STEPS =   2

 Calculating another point on the path.
 IRC-IRC-IRC-IRC-IRC-IRC-IRC-IRC-IRC-IRC-IRC-IRC-IRC-IRC-IRC-IRC-IRC-IRC
                          Input orientation:
 ---------------------------------------------------------------------
 Center     Atomic      Atomic             Coordinates (Angstroms)
 Number     Number       Type             X           Y           Z
 ---------------------------------------------------------------------
      1          6           0       -0.271037    0.773103   -0.066801
      2          1           0       -0.226211    1.506185   -0.857411
      3          8           0       -1.153131    0.602449    0.707843
      4          8           0        0.334818   -0.517609   -0.750236
      5          6           0       -0.337423   -1.745650   -0.547038
      6          1           0        0.257640   -2.518359   -1.010722
      7          1           0       -0.467019   -1.948647    0.505822
      8          1           0       -1.305563   -1.692517   -1.021036
      9          8           0        1.238102    0.897485    0.565436
     10          1           0        1.152618   -0.221843   -0.114908
     11          1           0        1.170999    0.864911    1.506070
 ---------------------------------------------------------------------
                    Distance matrix (angstroms):
                    1          2          3          4          5
     1  C    0.000000
     2  H    1.079112   0.000000
     3  O    1.186290   2.031241   0.000000
     4  O    1.581165   2.102850   2.365273   0.000000
     5  C    2.564986   3.268506   2.784542   1.414667   0.000000
     6  H    3.464709   4.056423   3.831864   2.019111   1.079899
     7  H    2.788231   3.721862   2.649462   2.066034   1.080055
     8  H    2.839030   3.379862   2.877347   2.035827   1.079255
     9  O    1.640943   2.130546   2.413570   2.132934   3.272009
    10  H    1.737535   2.332072   2.583187   1.076994   2.174614
    11  H    2.135841   2.819481   2.471362   2.775154   3.647687
                    6          7          8          9         10
     6  H    0.000000
     7  H    1.774714   0.000000
     8  H    1.767972   1.760697   0.000000
     9  O    3.887617   3.318351   3.961721   0.000000
    10  H    2.622490   2.447526   3.004431   1.312658   0.000000
    11  H    4.314508   3.405834   4.365783   0.943587   1.951651
                   11
    11  H    0.000000
 Symmetry turned off by external request.
 Stoichiometry    C2H6O3
 Framework group  C1[X(C2H6O3)]
 Deg. of freedom    27
 Full point group                 C1      NOp   1
 Rotational constants (GHZ):      7.6762955      4.3854352      3.2342230
 Standard basis: 6-311++G(df,pd) (5D, 7F)
 Integral buffers will be    131072 words long.
 Raffenetti 1 integral format.
 Two-electron integral symmetry is turned off.
   217 basis functions,   320 primitive gaussians,   243 cartesian basis functions
    21 alpha electrons       21 beta electrons
       nuclear repulsion energy       200.4475359154 Hartrees.
 NAtoms=   11 NActive=   11 NUniq=   11 SFac= 7.50D-01 NAtFMM=   80 NAOKFM=F Big=F
 One-electron integrals computed using PRISM.
 NBasis=   217 RedAO= T  NBF=   217
 NBsUse=   217 1.00D-06 NBFU=   217
 Initial guess read from the read-write file.
 B after Tr=     0.000000    0.000000    0.000000
         Rot=    1.000000    0.000000    0.000000    0.000000 Ang=   0.00 deg.
 Harris functional with IExCor=  205 diagonalized for initial guess.
 ExpMin= 3.60D-02 ExpMax= 8.59D+03 ExpMxC= 1.30D+03 IAcc=3 IRadAn=         0 AccDes= 0.00D+00
 HarFok:  IExCor=  205 AccDes= 0.00D+00 IRadAn=         0 IDoV= 1
 ScaDFX=  1.000000  1.000000  1.000000  1.000000
 FoFCou: FMM=F IPFlag=           0 FMFlag=      100000 FMFlg1=           0
         NFxFlg=           0 DoJE=T BraDBF=F KetDBF=T FulRan=T
         Omega=  0.000000  0.000000  1.000000  0.000000  0.000000 ICntrl=     500 IOpCl=  0
         NMat0=    1 NMatS0=    1 NMatT0=    0 NMatD0=    1 NMtDS0=    0 NMtDT0=    0
         I1Cent=           4 NGrid=           0.
 Symmetry not used in FoFCou.
 Requested convergence on RMS density matrix=1.00D-08 within 128 cycles.
 Requested convergence on MAX density matrix=1.00D-06.
 Requested convergence on             energy=1.00D-06.
 No special actions if energy rises.
 Keep R1 ints in memory in canonical form, NReq=446919482.
 SCF Done:  E(RHF) =  -303.818484704     A.U. after   12 cycles
             Convg  =    0.4790D-08             -V/T =  2.0001
 Range of M.O.s used for correlation:     1   217
 NBasis=   217 NAE=    21 NBE=    21 NFC=     0 NFV=     0
 NROrb=    217 NOA=    21 NOB=    21 NVA=   196 NVB=   196

 **** Warning!!: The largest alpha MO coefficient is  0.14990854D+02

 Symmetrizing basis deriv contribution to polar:
 IMax=3 JMax=2 DiffMx= 0.00D+00
 G2DrvN: will do    12 centers at a time, making    1 passes doing MaxLOS=3.
 Calling FoFCou, ICntrl=  3107 FMM=F I1Cent=   0 AccDes= 0.00D+00.
 FoFDir/FoFCou used for L=0 through L=3.
 End of G2Drv Frequency-dependent properties file   721 does not exist.
 End of G2Drv Frequency-dependent properties file   722 does not exist.
          IDoAtm=11111111111
          Differentiating once with respect to nuclear coordinates.
          Keep R1 ints in memory in canonical form, NReq=441399030.
          There are    36 degrees of freedom in the 1st order CPHF.  IDoFFX=5.
     30 vectors produced by pass  0 Test12= 1.14D-10 2.78D-07 XBig12= 1.12D-01 8.89D-02.
 AX will form    30 AO Fock derivatives at one time.
     30 vectors produced by pass  1 Test12= 1.14D-10 2.78D-07 XBig12= 5.54D-03 1.60D-02.
     30 vectors produced by pass  2 Test12= 1.14D-10 2.78D-07 XBig12= 3.18D-04 2.64D-03.
     30 vectors produced by pass  3 Test12= 1.14D-10 2.78D-07 XBig12= 3.57D-06 3.18D-04.
     30 vectors produced by pass  4 Test12= 1.14D-10 2.78D-07 XBig12= 4.00D-08 3.85D-05.
     16 vectors produced by pass  5 Test12= 1.14D-10 2.78D-07 XBig12= 4.15D-10 2.54D-06.
 Inverted reduced A of dimension   166 with in-core refinement.
 End of Minotr Frequency-dependent properties file   721 does not exist.
 End of Minotr Frequency-dependent properties file   722 does not exist.
 Calling FoFJK, ICntrl=    100147 FMM=F ISym2X=0 I1Cent= 0 IOpClX= 0 NMat=1 NMatS=1 NMatT=0.
 -------------------------------------------------------------------
 Center     Atomic                   Forces (Hartrees/Bohr)
 Number     Number              X              Y              Z
 -------------------------------------------------------------------
      1        6           0.012691904    0.014909954    0.014804713
      2        1          -0.000591322   -0.000796419   -0.000798253
      3        8          -0.001314478   -0.001745943   -0.001449540
      4        8           0.006016264   -0.006093045   -0.003432752
      5        6           0.001019618   -0.003480695    0.000726151
      6        1          -0.000185020   -0.000363128   -0.000008534
      7        1           0.000016845    0.000353877    0.000038417
      8        1           0.000432545    0.000923555   -0.000146399
      9        8          -0.011973617    0.008893037    0.001806487
     10        1          -0.005007558   -0.014630759   -0.011577671
     11        1          -0.001105180    0.002029565    0.000037382
 -------------------------------------------------------------------
 Cartesian Forces:  Max     0.014909954 RMS     0.006313637
 IRC-IRC-IRC-IRC-IRC-IRC-IRC-IRC-IRC-IRC-IRC-IRC-IRC-IRC-IRC-IRC-IRC-IRC
 Pt  2 Step number   1 out of a maximum of  20
 CORRECTOR INTEGRATION CONVERGENCE:
   Recorrection delta-x convergence threshold:    0.010000
   Delta-x Convergence Met
 Recorrect forced on => Unset convergence flag.
 IRC-IRC-IRC-IRC-IRC-IRC-IRC-IRC-IRC-IRC-IRC-IRC-IRC-IRC-IRC-IRC-IRC-IRC
                          Input orientation:
 ---------------------------------------------------------------------
 Center     Atomic      Atomic             Coordinates (Angstroms)
 Number     Number       Type             X           Y           Z
 ---------------------------------------------------------------------
      1          6           0       -0.270989    0.773146   -0.066752
      2          1           0       -0.226231    1.506151   -0.857431
      3          8           0       -1.153133    0.602446    0.707839
      4          8           0        0.334780   -0.517646   -0.750286
      5          6           0       -0.337423   -1.745659   -0.547039
      6          1           0        0.257633   -2.518378   -1.010724
      7          1           0       -0.467018   -1.948632    0.505831
      8          1           0       -1.305552   -1.692495   -1.021039
      9          8           0        1.238072    0.897512    0.565442
     10          1           0        1.153252   -0.222066   -0.114712
     11          1           0        1.170943    0.864979    1.506069
 ---------------------------------------------------------------------
                    Distance matrix (angstroms):
                    1          2          3          4          5
     1  C    0.000000
     2  H    1.079108   0.000000
     3  O    1.186300   2.031232   0.000000
     4  O    1.581240   2.102848   2.365295   0.000000
     5  C    2.565048   3.268482   2.784547   1.414631   0.000000
     6  H    3.464773   4.056409   3.831874   2.019085   1.079902
     7  H    2.788253   3.721825   2.649445   2.066017   1.080059
     8  H    2.839079   3.379798   2.877325   2.035747   1.079248
     9  O    1.640854   2.130538   2.413546   2.133014   3.272026
    10  H    1.738163   2.332668   2.583761   1.077599   2.174938
    11  H    2.135736   2.819456   2.471321   2.775241   3.647720
                    6          7          8          9         10
     6  H    0.000000
     7  H    1.774730   0.000000
     8  H    1.767975   1.760703   0.000000
     9  O    3.887655   3.318346   3.961702   0.000000
    10  H    2.622597   2.447728   3.004880   1.312730   0.000000
    11  H    4.314567   3.405848   4.365774   0.943581   1.951644
                   11
    11  H    0.000000
 Symmetry turned off by external request.
 Stoichiometry    C2H6O3
 Framework group  C1[X(C2H6O3)]
 Deg. of freedom    27
 Full point group                 C1      NOp   1
 Rotational constants (GHZ):      7.6763287      4.3852990      3.2341559
 Standard basis: 6-311++G(df,pd) (5D, 7F)
 Integral buffers will be    131072 words long.
 Raffenetti 1 integral format.
 Two-electron integral symmetry is turned off.
   217 basis functions,   320 primitive gaussians,   243 cartesian basis functions
    21 alpha electrons       21 beta electrons
       nuclear repulsion energy       200.4435301734 Hartrees.
 NAtoms=   11 NActive=   11 NUniq=   11 SFac= 7.50D-01 NAtFMM=   80 NAOKFM=F Big=F
 One-electron integrals computed using PRISM.
 NBasis=   217 RedAO= T  NBF=   217
 NBsUse=   217 1.00D-06 NBFU=   217
 Initial guess read from the read-write file.
 B after Tr=     0.000000    0.000000    0.000000
         Rot=    1.000000    0.000000    0.000000    0.000000 Ang=   0.00 deg.
 Harris functional with IExCor=  205 diagonalized for initial guess.
 ExpMin= 3.60D-02 ExpMax= 8.59D+03 ExpMxC= 1.30D+03 IAcc=3 IRadAn=         0 AccDes= 0.00D+00
 HarFok:  IExCor=  205 AccDes= 0.00D+00 IRadAn=         0 IDoV= 1
 ScaDFX=  1.000000  1.000000  1.000000  1.000000
 FoFCou: FMM=F IPFlag=           0 FMFlag=      100000 FMFlg1=           0
         NFxFlg=           0 DoJE=T BraDBF=F KetDBF=T FulRan=T
         Omega=  0.000000  0.000000  1.000000  0.000000  0.000000 ICntrl=     500 IOpCl=  0
         NMat0=    1 NMatS0=    1 NMatT0=    0 NMatD0=    1 NMtDS0=    0 NMtDT0=    0
         I1Cent=           4 NGrid=           0.
 Symmetry not used in FoFCou.
 Requested convergence on RMS density matrix=1.00D-08 within 128 cycles.
 Requested convergence on MAX density matrix=1.00D-06.
 Requested convergence on             energy=1.00D-06.
 No special actions if energy rises.
 Keep R1 ints in memory in canonical form, NReq=446919482.
 SCF Done:  E(RHF) =  -303.818486192     A.U. after    7 cycles
             Convg  =    0.6023D-08             -V/T =  2.0001
 Range of M.O.s used for correlation:     1   217
 NBasis=   217 NAE=    21 NBE=    21 NFC=     0 NFV=     0
 NROrb=    217 NOA=    21 NOB=    21 NVA=   196 NVB=   196

 **** Warning!!: The largest alpha MO coefficient is  0.14990868D+02

 Symmetrizing basis deriv contribution to polar:
 IMax=3 JMax=2 DiffMx= 0.00D+00
 G2DrvN: will do    12 centers at a time, making    1 passes doing MaxLOS=3.
 Calling FoFCou, ICntrl=  3107 FMM=F I1Cent=   0 AccDes= 0.00D+00.
 FoFDir/FoFCou used for L=0 through L=3.
 End of G2Drv Frequency-dependent properties file   721 does not exist.
 End of G2Drv Frequency-dependent properties file   722 does not exist.
          IDoAtm=11111111111
          Differentiating once with respect to nuclear coordinates.
          Keep R1 ints in memory in canonical form, NReq=441399030.
          There are    36 degrees of freedom in the 1st order CPHF.  IDoFFX=5.
     30 vectors produced by pass  0 Test12= 1.14D-10 2.78D-07 XBig12= 1.12D-01 8.89D-02.
 AX will form    30 AO Fock derivatives at one time.
     30 vectors produced by pass  1 Test12= 1.14D-10 2.78D-07 XBig12= 5.54D-03 1.60D-02.
     30 vectors produced by pass  2 Test12= 1.14D-10 2.78D-07 XBig12= 3.18D-04 2.65D-03.
     30 vectors produced by pass  3 Test12= 1.14D-10 2.78D-07 XBig12= 3.57D-06 3.18D-04.
     30 vectors produced by pass  4 Test12= 1.14D-10 2.78D-07 XBig12= 4.00D-08 3.85D-05.
     16 vectors produced by pass  5 Test12= 1.14D-10 2.78D-07 XBig12= 4.15D-10 2.54D-06.
 Inverted reduced A of dimension   166 with in-core refinement.
 End of Minotr Frequency-dependent properties file   721 does not exist.
 End of Minotr Frequency-dependent properties file   722 does not exist.
 Calling FoFJK, ICntrl=    100147 FMM=F ISym2X=0 I1Cent= 0 IOpClX= 0 NMat=1 NMatS=1 NMatT=0.
 -------------------------------------------------------------------
 Center     Atomic                   Forces (Hartrees/Bohr)
 Number     Number              X              Y              Z
 -------------------------------------------------------------------
      1        6           0.012708229    0.014818193    0.014762989
      2        1          -0.000584551   -0.000786544   -0.000793866
      3        8          -0.001297699   -0.001728938   -0.001436153
      4        8           0.006245884   -0.006039261   -0.003271549
      5        6           0.001002689   -0.003469780    0.000713004
      6        1          -0.000187909   -0.000366320   -0.000007119
      7        1           0.000015320    0.000350232    0.000037584
      8        1           0.000420819    0.000908518   -0.000145594
      9        8          -0.011958915    0.008812075    0.001765429
     10        1          -0.005262369   -0.014526340   -0.011675450
     11        1          -0.001101498    0.002028165    0.000050724
 -------------------------------------------------------------------
 Cartesian Forces:  Max     0.014818193 RMS     0.006306671
 IRC-IRC-IRC-IRC-IRC-IRC-IRC-IRC-IRC-IRC-IRC-IRC-IRC-IRC-IRC-IRC-IRC-IRC
 Error in corrector energy =          -0.0000000162
 Magnitude of corrector gradient =     0.0362524217
 Magnitude of analytic gradient =      0.0362290648
 Magnitude of difference =             0.0000436448
 Angle between gradients (degrees)=    0.0583
 Pt  2 Step number   2 out of a maximum of  20
 CORRECTOR INTEGRATION CONVERGENCE:
   Recorrection delta-x convergence threshold:    0.010000
   Delta-x Convergence Met
 Point Number:   2          Path Number:   1
   CHANGE IN THE REACTION COORDINATE =    0.10589
   NET REACTION COORDINATE UP TO THIS POINT =    0.21184
  # OF POINTS ALONG THE PATH =   2
  # OF STEPS =   2

 Calculating another point on the path.
 IRC-IRC-IRC-IRC-IRC-IRC-IRC-IRC-IRC-IRC-IRC-IRC-IRC-IRC-IRC-IRC-IRC-IRC
                          Input orientation:
 ---------------------------------------------------------------------
 Center     Atomic      Atomic             Coordinates (Angstroms)
 Number     Number       Type             X           Y           Z
 ---------------------------------------------------------------------
      1          6           0       -0.267996    0.776529   -0.063329
      2          1           0       -0.227783    1.504014   -0.859539
      3          8           0       -1.153346    0.602156    0.707593
      4          8           0        0.335732   -0.518772   -0.750974
      5          6           0       -0.337212   -1.746457   -0.546893
      6          1           0        0.257087   -2.519436   -1.010735
      7          1           0       -0.466981   -1.947681    0.505951
      8          1           0       -1.304471   -1.690131   -1.021416
      9          8           0        1.235976    0.899030    0.565734
     10          1           0        1.140695   -0.260140   -0.144811
     11          1           0        1.167872    0.870542    1.506221
 ---------------------------------------------------------------------
                    Distance matrix (angstroms):
                    1          2          3          4          5
     1  C    0.000000
     2  H    1.079260   0.000000
     3  O    1.186833   2.031236   0.000000
     4  O    1.585921   2.102617   2.366696   0.000000
     5  C    2.569841   3.267305   2.784922   1.414819   0.000000
     6  H    3.469391   4.055380   3.832272   2.018989   1.079740
     7  H    2.790160   3.719674   2.648287   2.065427   1.079727
     8  H    2.841940   3.374614   2.875220   2.033590   1.078859
     9  O    1.634826   2.130727   2.411870   2.134085   3.272836
    10  H    1.750923   2.344314   2.594759   1.040332   2.134249
    11  H    2.129329   2.818859   2.469391   2.778053   3.650923
                    6          7          8          9         10
     6  H    0.000000
     7  H    1.775250   0.000000
     8  H    1.768142   1.760845   0.000000
     9  O    3.889651   3.317739   3.959377   0.000000
    10  H    2.575851   2.419898   2.965156   1.362948   0.000000
    11  H    4.319322   3.408176   4.365601   0.943380   2.001271
                   11
    11  H    0.000000
 Symmetry turned off by external request.
 Stoichiometry    C2H6O3
 Framework group  C1[X(C2H6O3)]
 Deg. of freedom    27
 Full point group                 C1      NOp   1
 Rotational constants (GHZ):      7.6879372      4.3801770      3.2321757
 Standard basis: 6-311++G(df,pd) (5D, 7F)
 Integral buffers will be    131072 words long.
 Raffenetti 1 integral format.
 Two-electron integral symmetry is turned off.
   217 basis functions,   320 primitive gaussians,   243 cartesian basis functions
    21 alpha electrons       21 beta electrons
       nuclear repulsion energy       200.4562207038 Hartrees.
 NAtoms=   11 NActive=   11 NUniq=   11 SFac= 7.50D-01 NAtFMM=   80 NAOKFM=F Big=F
 One-electron integrals computed using PRISM.
 NBasis=   217 RedAO= T  NBF=   217
 NBsUse=   217 1.00D-06 NBFU=   217
 Initial guess read from the read-write file.
 B after Tr=     0.000000    0.000000    0.000000
         Rot=    1.000000    0.000000    0.000000    0.000000 Ang=   0.00 deg.
 Harris functional with IExCor=  205 diagonalized for initial guess.
 ExpMin= 3.60D-02 ExpMax= 8.59D+03 ExpMxC= 1.30D+03 IAcc=3 IRadAn=         0 AccDes= 0.00D+00
 HarFok:  IExCor=  205 AccDes= 0.00D+00 IRadAn=         0 IDoV= 1
 ScaDFX=  1.000000  1.000000  1.000000  1.000000
 FoFCou: FMM=F IPFlag=           0 FMFlag=      100000 FMFlg1=           0
         NFxFlg=           0 DoJE=T BraDBF=F KetDBF=T FulRan=T
         Omega=  0.000000  0.000000  1.000000  0.000000  0.000000 ICntrl=     500 IOpCl=  0
         NMat0=    1 NMatS0=    1 NMatT0=    0 NMatD0=    1 NMtDS0=    0 NMtDT0=    0
         I1Cent=           4 NGrid=           0.
 Symmetry not used in FoFCou.
 Requested convergence on RMS density matrix=1.00D-08 within 128 cycles.
 Requested convergence on MAX density matrix=1.00D-06.
 Requested convergence on             energy=1.00D-06.
 No special actions if energy rises.
 Keep R1 ints in memory in canonical form, NReq=446919482.
 SCF Done:  E(RHF) =  -303.820998837     A.U. after   12 cycles
             Convg  =    0.4790D-08             -V/T =  2.0001
 Range of M.O.s used for correlation:     1   217
 NBasis=   217 NAE=    21 NBE=    21 NFC=     0 NFV=     0
 NROrb=    217 NOA=    21 NOB=    21 NVA=   196 NVB=   196

 **** Warning!!: The largest alpha MO coefficient is  0.14995637D+02

 Symmetrizing basis deriv contribution to polar:
 IMax=3 JMax=2 DiffMx= 0.00D+00
 G2DrvN: will do    12 centers at a time, making    1 passes doing MaxLOS=3.
 Calling FoFCou, ICntrl=  3107 FMM=F I1Cent=   0 AccDes= 0.00D+00.
 FoFDir/FoFCou used for L=0 through L=3.
 End of G2Drv Frequency-dependent properties file   721 does not exist.
 End of G2Drv Frequency-dependent properties file   722 does not exist.
          IDoAtm=11111111111
          Differentiating once with respect to nuclear coordinates.
          Keep R1 ints in memory in canonical form, NReq=441399030.
          There are    36 degrees of freedom in the 1st order CPHF.  IDoFFX=5.
     30 vectors produced by pass  0 Test12= 1.14D-10 2.78D-07 XBig12= 1.12D-01 8.36D-02.
 AX will form    30 AO Fock derivatives at one time.
     30 vectors produced by pass  1 Test12= 1.14D-10 2.78D-07 XBig12= 5.59D-03 1.52D-02.
     30 vectors produced by pass  2 Test12= 1.14D-10 2.78D-07 XBig12= 3.19D-04 2.67D-03.
     30 vectors produced by pass  3 Test12= 1.14D-10 2.78D-07 XBig12= 3.58D-06 3.11D-04.
     30 vectors produced by pass  4 Test12= 1.14D-10 2.78D-07 XBig12= 4.06D-08 4.00D-05.
     16 vectors produced by pass  5 Test12= 1.14D-10 2.78D-07 XBig12= 4.17D-10 2.53D-06.
 Inverted reduced A of dimension   166 with in-core refinement.
 End of Minotr Frequency-dependent properties file   721 does not exist.
 End of Minotr Frequency-dependent properties file   722 does not exist.
 Calling FoFJK, ICntrl=    100147 FMM=F ISym2X=0 I1Cent= 0 IOpClX= 0 NMat=1 NMatS=1 NMatT=0.
 -------------------------------------------------------------------
 Center     Atomic                   Forces (Hartrees/Bohr)
 Number     Number              X              Y              Z
 -------------------------------------------------------------------
      1        6           0.018598579    0.020278624    0.020911523
      2        1          -0.000758669   -0.001090985   -0.001012715
      3        8          -0.001594221   -0.002254021   -0.001982792
      4        8           0.004886237   -0.010370586   -0.007796619
      5        6           0.001092185   -0.004790630    0.000710572
      6        1          -0.000292103   -0.000574545   -0.000004101
      7        1           0.000018974    0.000481705    0.000082401
      8        1           0.000507471    0.001116722   -0.000175280
      9        8          -0.017259575    0.012165568    0.002140029
     10        1          -0.003595862   -0.017759465   -0.012939018
     11        1          -0.001603015    0.002797612    0.000065998
 -------------------------------------------------------------------
 Cartesian Forces:  Max     0.020911523 RMS     0.008500334
 IRC-IRC-IRC-IRC-IRC-IRC-IRC-IRC-IRC-IRC-IRC-IRC-IRC-IRC-IRC-IRC-IRC-IRC
 Pt  3 Step number   1 out of a maximum of  20
 CORRECTOR INTEGRATION CONVERGENCE:
   Recorrection delta-x convergence threshold:    0.010000
   Delta-x Convergence Met
 Recorrect forced on => Unset convergence flag.
 IRC-IRC-IRC-IRC-IRC-IRC-IRC-IRC-IRC-IRC-IRC-IRC-IRC-IRC-IRC-IRC-IRC-IRC
                          Input orientation:
 ---------------------------------------------------------------------
 Center     Atomic      Atomic             Coordinates (Angstroms)
 Number     Number       Type             X           Y           Z
 ---------------------------------------------------------------------
      1          6           0       -0.267942    0.776577   -0.063273
      2          1           0       -0.227802    1.503976   -0.859557
      3          8           0       -1.153348    0.602152    0.707589
      4          8           0        0.335689   -0.518814   -0.751028
      5          6           0       -0.337212   -1.746468   -0.546894
      6          1           0        0.257078   -2.519461   -1.010736
      7          1           0       -0.466979   -1.947666    0.505960
      8          1           0       -1.304463   -1.690113   -1.021419
      9          8           0        1.235939    0.899052    0.565735
     10          1           0        1.141427   -0.260276   -0.144527
     11          1           0        1.167813    0.870614    1.506220
 ---------------------------------------------------------------------
                    Distance matrix (angstroms):
                    1          2          3          4          5
     1  C    0.000000
     2  H    1.079254   0.000000
     3  O    1.186843   2.031224   0.000000
     4  O    1.586006   2.102613   2.366719   0.000000
     5  C    2.569912   3.267280   2.784928   1.414780   0.000000
     6  H    3.469466   4.055368   3.832285   2.018964   1.079744
     7  H    2.790187   3.719634   2.648269   2.065409   1.079733
     8  H    2.842003   3.374553   2.875202   2.033508   1.078853
     9  O    1.634720   2.130711   2.411839   2.134164   3.272846
    10  H    1.751567   2.344919   2.595357   1.041105   2.134723
    11  H    2.129212   2.818828   2.469346   2.778148   3.650958
                    6          7          8          9         10
     6  H    0.000000
     7  H    1.775268   0.000000
     8  H    1.768146   1.760852   0.000000
     9  O    3.889686   3.317726   3.959353   0.000000
    10  H    2.576103   2.420205   2.965764   1.362881   0.000000
    11  H    4.319388   3.408191   4.365596   0.943378   2.001143
                   11
    11  H    0.000000
 Symmetry turned off by external request.
 Stoichiometry    C2H6O3
 Framework group  C1[X(C2H6O3)]
 Deg. of freedom    27
 Full point group                 C1      NOp   1
 Rotational constants (GHZ):      7.6879898      4.3800404      3.2321097
 Standard basis: 6-311++G(df,pd) (5D, 7F)
 Integral buffers will be    131072 words long.
 Raffenetti 1 integral format.
 Two-electron integral symmetry is turned off.
   217 basis functions,   320 primitive gaussians,   243 cartesian basis functions
    21 alpha electrons       21 beta electrons
       nuclear repulsion energy       200.4517337928 Hartrees.
 NAtoms=   11 NActive=   11 NUniq=   11 SFac= 7.50D-01 NAtFMM=   80 NAOKFM=F Big=F
 One-electron integrals computed using PRISM.
 NBasis=   217 RedAO= T  NBF=   217
 NBsUse=   217 1.00D-06 NBFU=   217
 Initial guess read from the read-write file.
 B after Tr=     0.000000    0.000000    0.000000
         Rot=    1.000000    0.000000    0.000000    0.000000 Ang=   0.00 deg.
 Harris functional with IExCor=  205 diagonalized for initial guess.
 ExpMin= 3.60D-02 ExpMax= 8.59D+03 ExpMxC= 1.30D+03 IAcc=3 IRadAn=         0 AccDes= 0.00D+00
 HarFok:  IExCor=  205 AccDes= 0.00D+00 IRadAn=         0 IDoV= 1
 ScaDFX=  1.000000  1.000000  1.000000  1.000000
 FoFCou: FMM=F IPFlag=           0 FMFlag=      100000 FMFlg1=           0
         NFxFlg=           0 DoJE=T BraDBF=F KetDBF=T FulRan=T
         Omega=  0.000000  0.000000  1.000000  0.000000  0.000000 ICntrl=     500 IOpCl=  0
         NMat0=    1 NMatS0=    1 NMatT0=    0 NMatD0=    1 NMtDS0=    0 NMtDT0=    0
         I1Cent=           4 NGrid=           0.
 Symmetry not used in FoFCou.
 Requested convergence on RMS density matrix=1.00D-08 within 128 cycles.
 Requested convergence on MAX density matrix=1.00D-06.
 Requested convergence on             energy=1.00D-06.
 No special actions if energy rises.
 Keep R1 ints in memory in canonical form, NReq=446919482.
 SCF Done:  E(RHF) =  -303.821000954     A.U. after    7 cycles
             Convg  =    0.8909D-08             -V/T =  2.0001
 Range of M.O.s used for correlation:     1   217
 NBasis=   217 NAE=    21 NBE=    21 NFC=     0 NFV=     0
 NROrb=    217 NOA=    21 NOB=    21 NVA=   196 NVB=   196

 **** Warning!!: The largest alpha MO coefficient is  0.14995734D+02

 Symmetrizing basis deriv contribution to polar:
 IMax=3 JMax=2 DiffMx= 0.00D+00
 G2DrvN: will do    12 centers at a time, making    1 passes doing MaxLOS=3.
 Calling FoFCou, ICntrl=  3107 FMM=F I1Cent=   0 AccDes= 0.00D+00.
 FoFDir/FoFCou used for L=0 through L=3.
 End of G2Drv Frequency-dependent properties file   721 does not exist.
 End of G2Drv Frequency-dependent properties file   722 does not exist.
          IDoAtm=11111111111
          Differentiating once with respect to nuclear coordinates.
          Keep R1 ints in memory in canonical form, NReq=441399030.
          There are    36 degrees of freedom in the 1st order CPHF.  IDoFFX=5.
     30 vectors produced by pass  0 Test12= 1.14D-10 2.78D-07 XBig12= 1.12D-01 8.36D-02.
 AX will form    30 AO Fock derivatives at one time.
     30 vectors produced by pass  1 Test12= 1.14D-10 2.78D-07 XBig12= 5.59D-03 1.52D-02.
     30 vectors produced by pass  2 Test12= 1.14D-10 2.78D-07 XBig12= 3.19D-04 2.67D-03.
     30 vectors produced by pass  3 Test12= 1.14D-10 2.78D-07 XBig12= 3.58D-06 3.12D-04.
     30 vectors produced by pass  4 Test12= 1.14D-10 2.78D-07 XBig12= 4.06D-08 4.00D-05.
     16 vectors produced by pass  5 Test12= 1.14D-10 2.78D-07 XBig12= 4.18D-10 2.53D-06.
 Inverted reduced A of dimension   166 with in-core refinement.
 End of Minotr Frequency-dependent properties file   721 does not exist.
 End of Minotr Frequency-dependent properties file   722 does not exist.
 Calling FoFJK, ICntrl=    100147 FMM=F ISym2X=0 I1Cent= 0 IOpClX= 0 NMat=1 NMatS=1 NMatT=0.
 -------------------------------------------------------------------
 Center     Atomic                   Forces (Hartrees/Bohr)
 Number     Number              X              Y              Z
 -------------------------------------------------------------------
      1        6           0.018596662    0.020165973    0.020850409
      2        1          -0.000750505   -0.001078482   -0.001007324
      3        8          -0.001573595   -0.002232431   -0.001965273
      4        8           0.005224956   -0.010286736   -0.007556595
      5        6           0.001074065   -0.004775002    0.000697112
      6        1          -0.000295155   -0.000577287   -0.000002408
      7        1           0.000017100    0.000476980    0.000081034
      8        1           0.000494925    0.001100022   -0.000174188
      9        8          -0.017235160    0.012088776    0.002107902
     10        1          -0.003955871   -0.017675490   -0.013106102
     11        1          -0.001597421    0.002793676    0.000075434
 -------------------------------------------------------------------
 Cartesian Forces:  Max     0.020850409 RMS     0.008485176
 IRC-IRC-IRC-IRC-IRC-IRC-IRC-IRC-IRC-IRC-IRC-IRC-IRC-IRC-IRC-IRC-IRC-IRC
 Error in corrector energy =          -0.0000000233
 Magnitude of corrector gradient =     0.0487778888
 Magnitude of analytic gradient =      0.0487436261
 Magnitude of difference =             0.0000547903
 Angle between gradients (degrees)=    0.0502
 Pt  3 Step number   2 out of a maximum of  20
 CORRECTOR INTEGRATION CONVERGENCE:
   Recorrection delta-x convergence threshold:    0.010000
   Delta-x Convergence Met
 Point Number:   3          Path Number:   1
   CHANGE IN THE REACTION COORDINATE =    0.10580
   NET REACTION COORDINATE UP TO THIS POINT =    0.31764
  # OF POINTS ALONG THE PATH =   3
  # OF STEPS =   2

 Calculating another point on the path.
 IRC-IRC-IRC-IRC-IRC-IRC-IRC-IRC-IRC-IRC-IRC-IRC-IRC-IRC-IRC-IRC-IRC-IRC
                          Input orientation:
 ---------------------------------------------------------------------
 Center     Atomic      Atomic             Coordinates (Angstroms)
 Number     Number       Type             X           Y           Z
 ---------------------------------------------------------------------
      1          6           0       -0.264240    0.780443   -0.059194
      2          1           0       -0.229438    1.501526   -0.861757
      3          8           0       -1.153553    0.601843    0.707308
      4          8           0        0.336292   -0.520424   -0.752284
      5          6           0       -0.337039   -1.747392   -0.546789
      6          1           0        0.256340   -2.520883   -1.010724
      7          1           0       -0.466950   -1.946587    0.506167
      8          1           0       -1.303444   -1.687791   -1.021784
      9          8           0        1.233374    0.900788    0.566009
     10          1           0        1.134732   -0.298354   -0.172118
     11          1           0        1.164061    0.877038    1.506396
 ---------------------------------------------------------------------
                    Distance matrix (angstroms):
                    1          2          3          4          5
     1  C    0.000000
     2  H    1.079481   0.000000
     3  O    1.187561   2.031104   0.000000
     4  O    1.591623   2.102455   2.368445   0.000000
     5  C    2.575460   3.265922   2.785383   1.414586   0.000000
     6  H    3.474933   4.054373   3.832864   2.018668   1.079640
     7  H    2.792385   3.717138   2.646956   2.064665   1.079478
     8  H    2.845821   3.369100   2.873090   2.030790   1.078476
     9  O    1.627332   2.130545   2.409721   2.135999   3.273739
    10  H    1.770219   2.361383   2.611512   1.011639   2.099094
    11  H    2.121426   2.817796   2.466903   2.782038   3.654655
                    6          7          8          9         10
     6  H    0.000000
     7  H    1.775929   0.000000
     8  H    1.768358   1.761059   0.000000
     9  O    3.892109   3.316960   3.956926   0.000000
    10  H    2.532679   2.396274   2.932092   1.411560   0.000000
    11  H    4.325011   3.410794   4.365618   0.943237   2.049346
                   11
    11  H    0.000000
 Symmetry turned off by external request.
 Stoichiometry    C2H6O3
 Framework group  C1[X(C2H6O3)]
 Deg. of freedom    27
 Full point group                 C1      NOp   1
 Rotational constants (GHZ):      7.7012814      4.3732348      3.2293916
 Standard basis: 6-311++G(df,pd) (5D, 7F)
 Integral buffers will be    131072 words long.
 Raffenetti 1 integral format.
 Two-electron integral symmetry is turned off.
   217 basis functions,   320 primitive gaussians,   243 cartesian basis functions
    21 alpha electrons       21 beta electrons
       nuclear repulsion energy       200.4403236705 Hartrees.
 NAtoms=   11 NActive=   11 NUniq=   11 SFac= 7.50D-01 NAtFMM=   80 NAOKFM=F Big=F
 One-electron integrals computed using PRISM.
 NBasis=   217 RedAO= T  NBF=   217
 NBsUse=   217 1.00D-06 NBFU=   217
 Initial guess read from the read-write file.
 B after Tr=     0.000000    0.000000    0.000000
         Rot=    1.000000    0.000000    0.000000    0.000000 Ang=   0.00 deg.
 Harris functional with IExCor=  205 diagonalized for initial guess.
 ExpMin= 3.60D-02 ExpMax= 8.59D+03 ExpMxC= 1.30D+03 IAcc=3 IRadAn=         0 AccDes= 0.00D+00
 HarFok:  IExCor=  205 AccDes= 0.00D+00 IRadAn=         0 IDoV= 1
 ScaDFX=  1.000000  1.000000  1.000000  1.000000
 FoFCou: FMM=F IPFlag=           0 FMFlag=      100000 FMFlg1=           0
         NFxFlg=           0 DoJE=T BraDBF=F KetDBF=T FulRan=T
         Omega=  0.000000  0.000000  1.000000  0.000000  0.000000 ICntrl=     500 IOpCl=  0
         NMat0=    1 NMatS0=    1 NMatT0=    0 NMatD0=    1 NMtDS0=    0 NMtDT0=    0
         I1Cent=           4 NGrid=           0.
 Symmetry not used in FoFCou.
 Requested convergence on RMS density matrix=1.00D-08 within 128 cycles.
 Requested convergence on MAX density matrix=1.00D-06.
 Requested convergence on             energy=1.00D-06.
 No special actions if energy rises.
 Keep R1 ints in memory in canonical form, NReq=446919482.
 SCF Done:  E(RHF) =  -303.823779694     A.U. after   11 cycles
             Convg  =    0.9523D-08             -V/T =  2.0000
 Range of M.O.s used for correlation:     1   217
 NBasis=   217 NAE=    21 NBE=    21 NFC=     0 NFV=     0
 NROrb=    217 NOA=    21 NOB=    21 NVA=   196 NVB=   196

 **** Warning!!: The largest alpha MO coefficient is  0.14957212D+02

 Symmetrizing basis deriv contribution to polar:
 IMax=3 JMax=2 DiffMx= 0.00D+00
 G2DrvN: will do    12 centers at a time, making    1 passes doing MaxLOS=3.
 Calling FoFCou, ICntrl=  3107 FMM=F I1Cent=   0 AccDes= 0.00D+00.
 FoFDir/FoFCou used for L=0 through L=3.
 End of G2Drv Frequency-dependent properties file   721 does not exist.
 End of G2Drv Frequency-dependent properties file   722 does not exist.
          IDoAtm=11111111111
          Differentiating once with respect to nuclear coordinates.
          Keep R1 ints in memory in canonical form, NReq=441399030.
          There are    36 degrees of freedom in the 1st order CPHF.  IDoFFX=5.
     30 vectors produced by pass  0 Test12= 1.14D-10 2.78D-07 XBig12= 1.11D-01 7.48D-02.
 AX will form    30 AO Fock derivatives at one time.
     30 vectors produced by pass  1 Test12= 1.14D-10 2.78D-07 XBig12= 5.64D-03 1.50D-02.
     30 vectors produced by pass  2 Test12= 1.14D-10 2.78D-07 XBig12= 3.20D-04 2.67D-03.
     30 vectors produced by pass  3 Test12= 1.14D-10 2.78D-07 XBig12= 3.61D-06 3.11D-04.
     30 vectors produced by pass  4 Test12= 1.14D-10 2.78D-07 XBig12= 4.13D-08 4.08D-05.
     15 vectors produced by pass  5 Test12= 1.14D-10 2.78D-07 XBig12= 4.21D-10 2.49D-06.
 Inverted reduced A of dimension   165 with in-core refinement.
 End of Minotr Frequency-dependent properties file   721 does not exist.
 End of Minotr Frequency-dependent properties file   722 does not exist.
 Calling FoFJK, ICntrl=    100147 FMM=F ISym2X=0 I1Cent= 0 IOpClX= 0 NMat=1 NMatS=1 NMatT=0.
 -------------------------------------------------------------------
 Center     Atomic                   Forces (Hartrees/Bohr)
 Number     Number              X              Y              Z
 -------------------------------------------------------------------
      1        6           0.023706589    0.023827355    0.025701983
      2        1          -0.000797019   -0.001281394   -0.001053850
      3        8          -0.001439306   -0.002413941   -0.002336631
      4        8           0.002300272   -0.014757095   -0.012695588
      5        6           0.000793111   -0.005719159    0.000399680
      6        1          -0.000415895   -0.000799824    0.000013703
      7        1           0.000011899    0.000554998    0.000128117
      8        1           0.000462727    0.001079167   -0.000165839
      9        8          -0.021906255    0.014206593    0.001925676
     10        1          -0.000709862   -0.018020271   -0.011990425
     11        1          -0.002006262    0.003323570    0.000073174
 -------------------------------------------------------------------
 Cartesian Forces:  Max     0.025701983 RMS     0.010145706
 IRC-IRC-IRC-IRC-IRC-IRC-IRC-IRC-IRC-IRC-IRC-IRC-IRC-IRC-IRC-IRC-IRC-IRC
 Pt  4 Step number   1 out of a maximum of  20
 CORRECTOR INTEGRATION CONVERGENCE:
   Recorrection delta-x convergence threshold:    0.010000
   Delta-x Convergence Met
 Recorrect forced on => Unset convergence flag.
 IRC-IRC-IRC-IRC-IRC-IRC-IRC-IRC-IRC-IRC-IRC-IRC-IRC-IRC-IRC-IRC-IRC-IRC
                          Input orientation:
 ---------------------------------------------------------------------
 Center     Atomic      Atomic             Coordinates (Angstroms)
 Number     Number       Type             X           Y           Z
 ---------------------------------------------------------------------
      1          6           0       -0.264196    0.780479   -0.059150
      2          1           0       -0.229448    1.501496   -0.861762
      3          8           0       -1.153553    0.601841    0.707304
      4          8           0        0.336250   -0.520459   -0.752332
      5          6           0       -0.337041   -1.747400   -0.546792
      6          1           0        0.256331   -2.520905   -1.010724
      7          1           0       -0.466949   -1.946576    0.506176
      8          1           0       -1.303443   -1.687788   -1.021784
      9          8           0        1.233343    0.900803    0.566008
     10          1           0        1.135465   -0.298365   -0.171780
     11          1           0        1.164015    0.877091    1.506393
 ---------------------------------------------------------------------
                    Distance matrix (angstroms):
                    1          2          3          4          5
     1  C    0.000000
     2  H    1.079471   0.000000
     3  O    1.187568   2.031087   0.000000
     4  O    1.591690   2.102448   2.368461   0.000000
     5  C    2.575514   3.265900   2.785387   1.414550   0.000000
     6  H    3.474994   4.054365   3.832876   2.018648   1.079645
     7  H    2.792406   3.717103   2.646943   2.064650   1.079485
     8  H    2.845882   3.369066   2.873084   2.030728   1.078473
     9  O    1.627244   2.130520   2.409692   2.136066   3.273745
    10  H    1.770775   2.361898   2.612043   1.012477   2.099669
    11  H    2.121331   2.817761   2.466866   2.782117   3.654680
                    6          7          8          9         10
     6  H    0.000000
     7  H    1.775943   0.000000
     8  H    1.768361   1.761066   0.000000
     9  O    3.892136   3.316948   3.956915   0.000000
    10  H    2.533059   2.396655   2.932793   1.411353   0.000000
    11  H    4.325060   3.410803   4.365619   0.943235   2.049092
                   11
    11  H    0.000000
 Symmetry turned off by external request.
 Stoichiometry    C2H6O3
 Framework group  C1[X(C2H6O3)]
 Deg. of freedom    27
 Full point group                 C1      NOp   1
 Rotational constants (GHZ):      7.7013165      4.3731246      3.2293372
 Standard basis: 6-311++G(df,pd) (5D, 7F)
 Integral buffers will be    131072 words long.
[...]
  34                   -0.10675  -7.09972
  35                   -0.10643  -6.99373
  36                   -0.10610  -6.88774
  37                   -0.10575  -6.78175
  38                   -0.10538  -6.67576
  39                   -0.10499  -6.56976
  40                   -0.10459  -6.46377
  41                   -0.10416  -6.35778
  42                   -0.10371  -6.25179
  43                   -0.10323  -6.14579
  44                   -0.10274  -6.03980
  45                   -0.10222  -5.93381
  46                   -0.10167  -5.82781
  47                   -0.10110  -5.72182
  48                   -0.10051  -5.61583
  49                   -0.09988  -5.50983
  50                   -0.09923  -5.40384
  51                   -0.09854  -5.29785
  52                   -0.09783  -5.19186
  53                   -0.09708  -5.08586
  54                   -0.09630  -4.97987
  55                   -0.09548  -4.87388
  56                   -0.09463  -4.76789
  57                   -0.09373  -4.66189
  58                   -0.09280  -4.55590
  59                   -0.09183  -4.44991
  60                   -0.09081  -4.34392
  61                   -0.08974  -4.23793
  62                   -0.08863  -4.13194
  63                   -0.08747  -4.02595
  64                   -0.08626  -3.91996
  65                   -0.08499  -3.81397
  66                   -0.08367  -3.70798
  67                   -0.08228  -3.60199
  68                   -0.08084  -3.49600
  69                   -0.07934  -3.39002
  70                   -0.07777  -3.28403
  71                   -0.07613  -3.17804
  72                   -0.07443  -3.07206
  73                   -0.07266  -2.96607
  74                   -0.07082  -2.86009
  75                   -0.06890  -2.75411
  76                   -0.06691  -2.64813
  77                   -0.06485  -2.54214
  78                   -0.06271  -2.43616
  79                   -0.06050  -2.33018
  80                   -0.05822  -2.22420
  81                   -0.05586  -2.11822
  82                   -0.05344  -2.01224
  83                   -0.05094  -1.90626
  84                   -0.04838  -1.80028
  85                   -0.04575  -1.69429
  86                   -0.04306  -1.58831
  87                   -0.04032  -1.48233
  88                   -0.03751  -1.37635
  89                   -0.03466  -1.27037
  90                   -0.03176  -1.16440
  91                   -0.02881  -1.05843
  92                   -0.02580  -0.95248
  93                   -0.02273  -0.84654
  94                   -0.01958  -0.74064
  95                   -0.01634  -0.63482
  96                   -0.01295  -0.52917
  97                   -0.00941  -0.42358
  98                   -0.00587  -0.31782
  99                   -0.00280  -0.21192
 100                   -0.00072  -0.10597
 101                    0.00000   0.00000
 102                   -0.00068   0.10595
 103                   -0.00250   0.21184
 104                   -0.00502   0.31764
 105                   -0.00780   0.42334
 106                   -0.01061   0.52907
 107                   -0.01340   0.63490
 108                   -0.01614   0.74078
 109                   -0.01885   0.84670
 110                   -0.02153   0.95263
 111                   -0.02418   1.05859
 112                   -0.02681   1.16455
 113                   -0.02940   1.27052
 114                   -0.03196   1.37649
 115                   -0.03447   1.48247
 116                   -0.03695   1.58844
 117                   -0.03938   1.69441
 118                   -0.04176   1.80038
 119                   -0.04409   1.90635
 120                   -0.04638   2.01232
 121                   -0.04861   2.11829
 122                   -0.05079   2.22426
 123                   -0.05293   2.33023
 124                   -0.05502   2.43620
 125                   -0.05707   2.54218
 126                   -0.05907   2.64816
 127                   -0.06103   2.75413
 128                   -0.06295   2.86011
 129                   -0.06482   2.96610
 130                   -0.06665   3.07208
 131                   -0.06843   3.17807
 132                   -0.07017   3.28405
 133                   -0.07186   3.39004
 134                   -0.07350   3.49603
 135                   -0.07509   3.60202
 136                   -0.07663   3.70801
 137                   -0.07813   3.81400
 138                   -0.07957   3.91999
 139                   -0.08096   4.02598
 140                   -0.08230   4.13198
 141                   -0.08359   4.23797
 142                   -0.08482   4.34396
 143                   -0.08601   4.44995
 144                   -0.08714   4.55594
 145                   -0.08823   4.66194
 146                   -0.08927   4.76793
 147                   -0.09026   4.87392
 148                   -0.09120   4.97991
 149                   -0.09210   5.08591
 150                   -0.09295   5.19190
 151                   -0.09377   5.29789
 152                   -0.09454   5.40388
 153                   -0.09527   5.50987
 154                   -0.09597   5.61586
 155                   -0.09663   5.72186
 156                   -0.09725   5.82785
 157                   -0.09784   5.93384
 158                   -0.09840   6.03983
 159                   -0.09893   6.14582
 160                   -0.09943   6.25182
 161                   -0.09991   6.35781
 162                   -0.10036   6.46380
 163                   -0.10078   6.56979
 164                   -0.10118   6.67578
 165                   -0.10156   6.78178
 166                   -0.10192   6.88777
 167                   -0.10225   6.99376
 168                   -0.10257   7.09975
 169                   -0.10287   7.20574
 170                   -0.10316   7.31174
 171                   -0.10343   7.41773
 172                   -0.10368   7.52372
 173                   -0.10392   7.62971
 174                   -0.10414   7.73570
 175                   -0.10435   7.84168
 176                   -0.10455   7.94764
 177                   -0.10474   8.05362
 178                   -0.10492   8.15961
 179                   -0.10509   8.26559
 180                   -0.10525   8.37156
 181                   -0.10540   8.47751
 182                   -0.10554   8.58351
 183                   -0.10567   8.68946
 184                   -0.10580   8.79543
 185                   -0.10591   8.90137
 186                   -0.10603   9.00737
 187                   -0.10613   9.11330
 188                   -0.10623   9.21928
 189                   -0.10633   9.32525
 190                   -0.10642   9.43120
 191                   -0.10650   9.53715
 192                   -0.10658   9.64307
 193                   -0.10665   9.74899
 194                   -0.10673   9.85501
 195                   -0.10679   9.96096
 196                   -0.10686  10.06689
 197                   -0.10692  10.17280
 198                   -0.10698  10.27869
 199                   -0.10703  10.38464
 200                   -0.10708  10.49060
 201                   -0.10713  10.59656
 --------------------------------------------------------------------------

 Total number of points:                  200
 Total number of gradient calculations:   401
 Total number of Hessian calculations:    401
 IRC-IRC-IRC-IRC-IRC-IRC-IRC-IRC-IRC-IRC-IRC-IRC-IRC-IRC-IRC-IRC-IRC-IRC
                          Input orientation:
 ---------------------------------------------------------------------
 Center     Atomic      Atomic             Coordinates (Angstroms)
 Number     Number       Type             X           Y           Z
 ---------------------------------------------------------------------
      1          6           0       -0.583839    0.534887   -0.377645
      2          1           0       -0.277001    1.449863   -0.870934
      3          8           0       -1.259987    0.496393    0.589765
      4          8           0       -0.111703   -0.507273   -1.016882
      5          6           0       -0.379803   -1.783576   -0.473656
      6          1           0        0.106623   -2.492505   -1.124777
      7          1           0        0.021273   -1.859325    0.527294
      8          1           0       -1.444399   -1.970646   -0.446383
      9          8           0        1.919012    1.112402    0.998858
     10          1           0        2.843042    0.996197    1.130352
     11          1           0        1.537969    1.262390    1.846790
 ---------------------------------------------------------------------
                    Distance matrix (angstroms):
                    1          2          3          4          5
     1  C    0.000000
     2  H    1.083819   0.000000
     3  O    1.180906   2.002251   0.000000
     4  O    1.310586   1.969520   2.215224   0.000000
     5  C    2.329403   3.259375   2.665304   1.412771   0.000000
     6  H    3.193752   3.969115   3.706857   2.000113   1.078494
     7  H    2.630081   3.604821   2.682338   2.056747   1.080972
     8  H    2.650091   3.639085   2.682143   2.059856   1.081251
     9  O    2.914197   2.903873   3.263871   3.287911   3.979891
    10  H    3.772317   3.734385   4.168559   3.949880   4.548264
    11  H    3.159024   3.273421   3.161553   3.748832   4.282549
                    6          7          8          9         10
     6  H    0.000000
     7  H    1.771310   0.000000
     8  H    1.771504   1.763132   0.000000
     9  O    4.559598   3.557379   4.786067   0.000000
    10  H    4.974398   4.059565   5.447054   0.940546   0.000000
    11  H    4.997819   3.713023   4.960411   0.941636   1.512401
                   11
    11  H    0.000000
 Symmetry turned off by external request.
 Stoichiometry    C2H6O3
 Framework group  C1[X(C2H6O3)]
 Deg. of freedom    27
 Full point group                 C1      NOp   1
 Rotational constants (GHZ):      6.1425137      2.8256579      2.2966443

 **********************************************************************

            Population analysis using the SCF density.

 **********************************************************************

 Alpha  occ. eigenvalues --  -20.59801 -20.56839 -20.53759 -11.36294 -11.27924
 Alpha  occ. eigenvalues --   -1.47352  -1.36920  -1.36765  -0.99047  -0.80845
 Alpha  occ. eigenvalues --   -0.74007  -0.73705  -0.67528  -0.67439  -0.59567
 Alpha  occ. eigenvalues --   -0.58953  -0.54861  -0.52425  -0.51836  -0.45972
 Alpha  occ. eigenvalues --   -0.45158
 Alpha virt. eigenvalues --    0.03926   0.05227   0.06400   0.07179   0.08408
 Alpha virt. eigenvalues --    0.08916   0.11846   0.13144   0.14366   0.16266
 Alpha virt. eigenvalues --    0.17548   0.17969   0.19340   0.20270   0.21028
 Alpha virt. eigenvalues --    0.25982   0.27772   0.28338   0.28615   0.29934
 Alpha virt. eigenvalues --    0.30598   0.31960   0.32113   0.32574   0.36579
 Alpha virt. eigenvalues --    0.37861   0.38530   0.39373   0.40883   0.42670
 Alpha virt. eigenvalues --    0.43831   0.44403   0.47453   0.48384   0.56511
 Alpha virt. eigenvalues --    0.57631   0.62259   0.66037   0.70703   0.74310
 Alpha virt. eigenvalues --    0.75951   0.78544   0.80938   0.82432   0.84329
 Alpha virt. eigenvalues --    0.89780   0.91050   0.97393   1.04169   1.06163
 Alpha virt. eigenvalues --    1.20645   1.21928   1.23783   1.26621   1.29241
 Alpha virt. eigenvalues --    1.34248   1.38247   1.39170   1.41624   1.42936
 Alpha virt. eigenvalues --    1.43836   1.51325   1.53266   1.58222   1.59417
 Alpha virt. eigenvalues --    1.63810   1.66775   1.69391   1.71389   1.72814
 Alpha virt. eigenvalues --    1.74154   1.77602   1.89107   1.90616   1.93993
 Alpha virt. eigenvalues --    1.94410   1.97463   2.01328   2.08556   2.11029
 Alpha virt. eigenvalues --    2.21035   2.23973   2.25171   2.25861   2.35604
 Alpha virt. eigenvalues --    2.38288   2.40413   2.46119   2.48739   2.53192
 Alpha virt. eigenvalues --    2.57487   2.68340   2.74124   2.74898   2.75922
 Alpha virt. eigenvalues --    2.78771   2.80948   2.87010   2.88996   2.93655
 Alpha virt. eigenvalues --    3.00596   3.01253   3.02477   3.03224   3.10118
 Alpha virt. eigenvalues --    3.16442   3.19216   3.22226   3.25555   3.27727
 Alpha virt. eigenvalues --    3.31720   3.34242   3.35205   3.36396   3.38016
 Alpha virt. eigenvalues --    3.40155   3.42050   3.43413   3.51777   3.54774
 Alpha virt. eigenvalues --    3.58677   3.63995   3.65652   3.73252   3.73976
 Alpha virt. eigenvalues --    3.86157   3.93374   4.01195   4.04125   4.06802
 Alpha virt. eigenvalues --    4.12690   4.15348   4.20237   4.24494   4.25959
 Alpha virt. eigenvalues --    4.31616   4.39186   4.42506   4.42993   4.43757
 Alpha virt. eigenvalues --    4.45118   4.53031   4.57733   4.66928   4.69189
 Alpha virt. eigenvalues --    4.71878   4.80938   4.82113   4.85201   4.87164
 Alpha virt. eigenvalues --    4.89929   5.01084   5.02394   5.08161   5.09723
 Alpha virt. eigenvalues --    5.18804   5.22137   5.28752   5.34291   5.45176
 Alpha virt. eigenvalues --    5.52954   5.54310   5.54408   5.58443   5.61080
 Alpha virt. eigenvalues --    5.62824   5.66521   5.68145   5.78669   5.87020
 Alpha virt. eigenvalues --    5.88177   5.91199   5.93380   5.93597   5.94452
 Alpha virt. eigenvalues --    6.09788   6.15164   6.17262   6.19460   6.41312
 Alpha virt. eigenvalues --    6.46636   6.50333   6.54084   6.62576   6.64189
 Alpha virt. eigenvalues --    6.67956   6.81204   7.01647   7.36893   7.42313
 Alpha virt. eigenvalues --    7.75701  26.25069  26.66471  51.83165  52.11878
 Alpha virt. eigenvalues --   52.44379
          Condensed to atoms (all electrons):
              1          2          3          4          5          6
     1  C    4.890442   0.408927   0.536006   0.233516  -0.115171   0.014119
     2  H    0.408927   0.579142  -0.041614  -0.144171   0.019941  -0.001199
     3  O    0.536006  -0.041614   8.005449  -0.136025  -0.001274   0.004364
     4  O    0.233516  -0.144171  -0.136025   8.160914   0.102667  -0.068193
     5  C   -0.115171   0.019941  -0.001274   0.102667   5.021093   0.419399
     6  H    0.014119  -0.001199   0.004364  -0.068193   0.419399   0.549512
     7  H   -0.010315  -0.001011  -0.008802  -0.032972   0.420643  -0.028280
     8  H    0.002104  -0.003384  -0.010291  -0.036569   0.419357  -0.028648
     9  O   -0.003212   0.002734  -0.002962  -0.018094  -0.009344  -0.001079
    10  H    0.001912  -0.001277   0.000420  -0.001193  -0.000295  -0.000080
    11  H    0.004662  -0.002229  -0.001321   0.000678  -0.000454   0.000121
              7          8          9         10         11
     1  C   -0.010315   0.002104  -0.003212   0.001912   0.004662
     2  H   -0.001011  -0.003384   0.002734  -0.001277  -0.002229
     3  O   -0.008802  -0.010291  -0.002962   0.000420  -0.001321
     4  O   -0.032972  -0.036569  -0.018094  -0.001193   0.000678
     5  C    0.420643   0.419357  -0.009344  -0.000295  -0.000454
     6  H   -0.028280  -0.028648  -0.001079  -0.000080   0.000121
     7  H    0.552337  -0.045053   0.003678   0.000603  -0.000075
     8  H   -0.045053   0.543759   0.001627  -0.000088   0.000009
     9  O    0.003678   0.001627   7.851083   0.348616   0.350257
    10  H    0.000603  -0.000088   0.348616   0.401980  -0.023264
    11  H   -0.000075   0.000009   0.350257  -0.023264   0.407442
 Mulliken atomic charges:
              1
     1  C    0.037011
     2  H    0.184141
     3  O   -0.343952
     4  O   -0.060559
     5  C   -0.276563
     6  H    0.139964
     7  H    0.149245
     8  H    0.157177
     9  O   -0.523304
    10  H    0.272667
    11  H    0.264174
 Sum of Mulliken atomic charges =   0.00000
 Mulliken charges with hydrogens summed into heavy atoms:
              1
     1  C    0.221151
     3  O   -0.343952
     4  O   -0.060559
     5  C    0.169823
     9  O    0.013536
 Sum of Mulliken charges with hydrogens summed into heavy atoms =   0.00000
          Condensed to fragments (all electrons):
     1      -0.013536
     2       0.013536
 APT atomic charges:
              1
     1  C   -0.225769
     2  H    0.371041
     3  O   -0.300824
     4  O    0.080168
     5  C   -1.022991
     6  H    0.481080
     7  H    0.231048
     8  H    0.385727
     9  O   -1.273778
    10  H    0.819847
    11  H    0.454450
 Sum of APT charges=   0.00000
 APT Atomic charges with hydrogens summed into heavy atoms:
              1
     1  C    0.145272
     2  H    0.000000
     3  O   -0.300824
     4  O    0.080168
     5  C    0.074864
     6  H    0.000000
     7  H    0.000000
     8  H    0.000000
     9  O    0.000519
    10  H    0.000000
    11  H    0.000000
 Sum of APT charges=   0.00000
 Electronic spatial extent (au):  <R**2>=            557.2727
 Charge=              0.0000 electrons
 Dipole moment (field-independent basis, Debye):
    X=              2.3875    Y=             -0.9317    Z=              0.4658  Tot=              2.6049
 Quadrupole moment (field-independent basis, Debye-Ang):
   XX=            -27.0844   YY=            -26.1923   ZZ=            -27.6830
   XY=              2.5425   XZ=              7.2279   YZ=              0.9053
 Traceless Quadrupole moment (field-independent basis, Debye-Ang):
   XX=             -0.0978   YY=              0.7943   ZZ=             -0.6965
   XY=              2.5425   XZ=              7.2279   YZ=              0.9053
 Octapole moment (field-independent basis, Debye-Ang**2):
  XXX=             30.1044  YYY=             -0.7896  ZZZ=             14.1974  XYY=             -0.7175
  XXY=              4.4492  XXZ=              7.7852  XZZ=             10.5575  YZZ=              8.8243
  YYZ=             -1.2306  XYZ=              5.9853
 Hexadecapole moment (field-independent basis, Debye-Ang**3):
 XXXX=           -175.8974 YYYY=           -254.0081 ZZZZ=           -124.0901 XXXY=            -17.5051
 XXXZ=              1.3560 YYYX=            -46.8820 YYYZ=            -44.8588 ZZZX=            -19.8478
 ZZZY=            -37.7248 XXYY=            -86.5137 XXZZ=            -49.9451 YYZZ=            -56.2864
 XXYZ=             -6.7755 YYXZ=             -7.6880 ZZXY=             -4.5018
 N-N= 1.825199277801D+02 E-N=-1.083021929972D+03  KE= 3.038680891861D+02
  Exact polarizability:   0.000   0.000   0.000   0.000   0.000   0.000
 Approx polarizability:  29.172  -0.785  28.748  -4.173   0.777  31.342
 -------------------------------------------------------------------
 Center     Atomic                   Forces (Hartrees/Bohr)
 Number     Number              X              Y              Z
 -------------------------------------------------------------------
      1        6          -0.000040165   -0.000072233   -0.000206907
      2        1          -0.000021911   -0.000010978   -0.000038711
      3        8           0.000573023    0.000087699    0.000175205
      4        8          -0.000476749   -0.000192977   -0.000398694
      5        6          -0.000084553   -0.000089436   -0.000019580
      6        1          -0.000037892   -0.000013410   -0.000018042
      7        1           0.000039613    0.000000990   -0.000019827
      8        1          -0.000006156   -0.000005258    0.000048766
      9        8           0.000149290    0.000151885    0.000372659
     10        1           0.000008916    0.000147262    0.000126234
     11        1          -0.000103417   -0.000003543   -0.000021101
 -------------------------------------------------------------------
 Cartesian Forces:  Max     0.000573023 RMS     0.000182320

 This type of calculation cannot be archived.


 WE ARE REACHING THE STAGE WHERE THE PROBLEMS WE MUST SOLVE ARE
 GOING TO BECOME INSOLUBLE WITHOUT COMPUTERS.
 I DO NOT FEAR COMPUTERS.  I FEAR THE LACK OF THEM.

                                   -- ISSAC ASIMOV
 Job cpu time:  2 days  7 hours 42 minutes 53.0 seconds.
 File lengths (MBytes):  RWF=     48 Int=      0 D2E=      0 Chk=      6 Scr=      1
 Normal termination of Gaussian 09 at Wed May 13 14:47:06 2020.